 Entering Link 1 = C:\G03W\l1.exe PID=      2712.
  
 Copyright (c) 1988,1990,1992,1993,1995,1998,2003,2004, Gaussian, Inc.
                  All Rights Reserved.
  
 This is the Gaussian(R) 03 program.  It is based on the
 the Gaussian(R) 98 system (copyright 1998, Gaussian, Inc.),
 the Gaussian(R) 94 system (copyright 1995, Gaussian, Inc.),
 the Gaussian 92(TM) system (copyright 1992, Gaussian, Inc.),
 the Gaussian 90(TM) system (copyright 1990, Gaussian, Inc.),
 the Gaussian 88(TM) system (copyright 1988, Gaussian, Inc.),
 the Gaussian 86(TM) system (copyright 1986, Carnegie Mellon
 University), and the Gaussian 82(TM) system (copyright 1983,
 Carnegie Mellon University). Gaussian is a federally registered
 trademark of Gaussian, Inc.
  
 This software contains proprietary and confidential information,
 including trade secrets, belonging to Gaussian, Inc.
  
 This software is provided under written license and may be
 used, copied, transmitted, or stored only in accord with that
 written license.
  
 The following legend is applicable only to US Government
 contracts under FAR:
  
                    RESTRICTED RIGHTS LEGEND
  
 Use, reproduction and disclosure by the US Government is
 subject to restrictions as set forth in subparagraphs (a)
 and (c) of the Commercial Computer Software - Restricted
 Rights clause in FAR 52.227-19.
  
 Gaussian, Inc.
 340 Quinnipiac St., Bldg. 40, Wallingford CT 06492
  
  
 ---------------------------------------------------------------
 Warning -- This program may not be used in any manner that
 competes with the business of Gaussian, Inc. or will provide
 assistance to any competitor of Gaussian, Inc.  The licensee
 of this program is prohibited from giving any competitor of
 Gaussian, Inc. access to this program.  By using this program,
 the user acknowledges that Gaussian, Inc. is engaged in the
 business of creating and licensing software in the field of
 computational chemistry and represents and warrants to the
 licensee that it is not a competitor of Gaussian, Inc. and that
 it will not use this program in any manner prohibited above.
 ---------------------------------------------------------------
  

 Cite this work as:
 Gaussian 03, Revision C.01,
 M. J. Frisch, G. W. Trucks, H. B. Schlegel, G. E. Scuseria, 
 M. A. Robb, J. R. Cheeseman, J. A. Montgomery, Jr., T. Vreven, 
 K. N. Kudin, J. C. Burant, J. M. Millam, S. S. Iyengar, J. Tomasi, 
 V. Barone, B. Mennucci, M. Cossi, G. Scalmani, N. Rega, 
 G. A. Petersson, H. Nakatsuji, M. Hada, M. Ehara, K. Toyota, 
 R. Fukuda, J. Hasegawa, M. Ishida, T. Nakajima, Y. Honda, O. Kitao, 
 H. Nakai, M. Klene, X. Li, J. E. Knox, H. P. Hratchian, J. B. Cross, 
 C. Adamo, J. Jaramillo, R. Gomperts, R. E. Stratmann, O. Yazyev, 
 A. J. Austin, R. Cammi, C. Pomelli, J. W. Ochterski, P. Y. Ayala, 
 K. Morokuma, G. A. Voth, P. Salvador, J. J. Dannenberg, 
 V. G. Zakrzewski, S. Dapprich, A. D. Daniels, M. C. Strain, 
 O. Farkas, D. K. Malick, A. D. Rabuck, K. Raghavachari, 
 J. B. Foresman, J. V. Ortiz, Q. Cui, A. G. Baboul, S. Clifford, 
 J. Cioslowski, B. B. Stefanov, G. Liu, A. Liashenko, P. Piskorz, 
 I. Komaromi, R. L. Martin, D. J. Fox, T. Keith, M. A. Al-Laham, 
 C. Y. Peng, A. Nanayakkara, M. Challacombe, P. M. W. Gill, 
 B. Johnson, W. Chen, M. W. Wong, C. Gonzalez, and J. A. Pople, 
 Gaussian, Inc., Wallingford CT, 2004.
 
 ******************************************
 Gaussian 03:  IA32W-G03RevC.01  3-Apr-2004
                07-Jun-2021 
 ******************************************
 %chk=C:\Users\moaz\Guassian Calcs\Exercise_2\acetone.chk
 %mem=16MW
 %nprocshared=1
 Will use up to    1 processors via shared memory.
 Default route:  MaxDisk=2000MB
 --------------------------------
 # opt freq pm3 geom=connectivity
 --------------------------------
 1/14=-1,18=50,26=3,38=1,57=2/1,3;
 2/9=110,17=6,18=5,40=1/2;
 3/5=2,11=9,12=1,16=1,25=1,30=1/1;
 4/5=3,11=1,20=7,22=1,24=3,35=1/1,2;
 6/7=2,8=2,9=2,10=2/1;
 7//16;
 1/14=-1,18=50/3(1);
 99//99;
 2/9=110/2;
 3/5=2,11=9,12=1,16=1,25=1,30=1/1;
 4/5=5,11=1,16=3,20=7,22=1,24=3,35=1/1,2;
 7//16;
 1/14=-1,18=50/3(-4);
 2/9=110/2;
 6/7=2,8=2,9=2,10=2/1;
 99//99;
 --------------------------
 Opt_Freq_of_acetone_at_pm3
 --------------------------
 Symbolic Z-matrix:
 Charge =  0 Multiplicity = 1
 C                     0.        0.        0. 
 C                     0.        0.        1.54 
 H                     1.00881   0.        1.89667 
 H                    -0.5044    0.87365   1.89667 
 H                    -0.5044   -0.87365   1.89667 
 C                    -1.155     0.66684  -0.77 
 H                    -1.5486    1.47652  -0.19173 
 H                    -0.792     1.03969  -1.70494 
 H                    -1.9269   -0.05237  -0.94833 
 O                     0.9438   -0.5449   -0.6292 
 

 GradGradGradGradGradGradGradGradGradGradGradGradGradGradGradGradGradGrad
 Berny optimization.
 Initialization pass.
                           ----------------------------
                           !    Initial Parameters    !
                           ! (Angstroms and Degrees)  !
 --------------------------                            --------------------------
 ! Name  Definition              Value          Derivative Info.                !
 --------------------------------------------------------------------------------
 ! R1    R(1,2)                  1.54           estimate D2E/DX2                !
 ! R2    R(1,6)                  1.54           estimate D2E/DX2                !
 ! R3    R(1,10)                 1.2584         estimate D2E/DX2                !
 ! R4    R(2,3)                  1.07           estimate D2E/DX2                !
 ! R5    R(2,4)                  1.07           estimate D2E/DX2                !
 ! R6    R(2,5)                  1.07           estimate D2E/DX2                !
 ! R7    R(6,7)                  1.07           estimate D2E/DX2                !
 ! R8    R(6,8)                  1.07           estimate D2E/DX2                !
 ! R9    R(6,9)                  1.07           estimate D2E/DX2                !
 ! A1    A(2,1,6)              120.0            estimate D2E/DX2                !
 ! A2    A(2,1,10)             120.0            estimate D2E/DX2                !
 ! A3    A(6,1,10)             120.0            estimate D2E/DX2                !
 ! A4    A(1,2,3)              109.4712         estimate D2E/DX2                !
 ! A5    A(1,2,4)              109.4712         estimate D2E/DX2                !
 ! A6    A(1,2,5)              109.4712         estimate D2E/DX2                !
 ! A7    A(3,2,4)              109.4712         estimate D2E/DX2                !
 ! A8    A(3,2,5)              109.4712         estimate D2E/DX2                !
 ! A9    A(4,2,5)              109.4712         estimate D2E/DX2                !
 ! A10   A(1,6,7)              109.4712         estimate D2E/DX2                !
 ! A11   A(1,6,8)              109.4712         estimate D2E/DX2                !
 ! A12   A(1,6,9)              109.4712         estimate D2E/DX2                !
 ! A13   A(7,6,8)              109.4712         estimate D2E/DX2                !
 ! A14   A(7,6,9)              109.4712         estimate D2E/DX2                !
 ! A15   A(8,6,9)              109.4712         estimate D2E/DX2                !
 ! D1    D(6,1,2,3)           -150.0            estimate D2E/DX2                !
 ! D2    D(6,1,2,4)            -30.0            estimate D2E/DX2                !
 ! D3    D(10,1,2,3)            30.0            estimate D2E/DX2                !
 ! D4    D(2,1,6,7)             30.0            estimate D2E/DX2                !
 ! D5    D(2,1,6,8)            150.0            estimate D2E/DX2                !
 ! D6    D(10,1,6,7)          -150.0            estimate D2E/DX2                !
 --------------------------------------------------------------------------------
 Trust Radius=3.00D-01 FncErr=1.00D-07 GrdErr=1.00D-06
 Number of steps in this run=  40 maximum allowed number of steps= 100.
 GradGradGradGradGradGradGradGradGradGradGradGradGradGradGradGradGradGrad

                          Input orientation:                          
 ---------------------------------------------------------------------
 Center     Atomic     Atomic              Coordinates (Angstroms)
 Number     Number      Type              X           Y           Z
 ---------------------------------------------------------------------
    1          6             0        0.000000    0.000000    0.000000
    2          6             0        0.000000    0.000000    1.540000
    3          1             0        1.008806    0.000000    1.896667
    4          1             0       -0.504403    0.873651    1.896667
    5          1             0       -0.504403   -0.873651    1.896667
    6          6             0       -1.155000    0.666840   -0.770000
    7          1             0       -1.548601    1.476519   -0.191729
    8          1             0       -0.791996    1.039694   -1.704938
    9          1             0       -1.926903   -0.052371   -0.948333
   10          8             0        0.943800   -0.544903   -0.629200
 ---------------------------------------------------------------------
                    Distance matrix (angstroms):
                    1          2          3          4          5
     1  C    0.000000
     2  C    1.540000   0.000000
     3  H    2.148263   1.070000   0.000000
     4  H    2.148263   1.070000   1.747303   0.000000
     5  H    2.148263   1.070000   1.747303   1.747303   0.000000
     6  C    1.540000   2.667358   3.498263   2.752664   3.147618
     7  H    2.148263   2.752664   3.616882   2.411472   3.312861
     8  H    2.148263   3.498263   4.158774   3.616882   4.088417
     9  H    2.148263   3.147618   4.088417   3.312861   3.285123
    10  O    1.258400   2.427572   2.584792   3.238764   2.930080
                    6          7          8          9         10
     6  C    0.000000
     7  H    1.070000   0.000000
     8  H    1.070000   1.747303   0.000000
     9  H    1.070000   1.747303   1.747303   0.000000
    10  O    2.427572   3.238764   2.584792   2.930080   0.000000
 Stoichiometry    C3H6O
 Framework group  CS[SG(CO),X(C2H6)]
 Deg. of freedom    13
 Full point group                 CS      NOp   2
 Largest Abelian subgroup         CS      NOp   2
 Largest concise Abelian subgroup CS      NOp   2
                         Standard orientation:                         
 ---------------------------------------------------------------------
 Center     Atomic     Atomic              Coordinates (Angstroms)
 Number     Number      Type              X           Y           Z
 ---------------------------------------------------------------------
    1          6             0        0.000000    0.151963    0.000000
    2          6             0        0.000000   -0.618037    1.333679
    3          1             0       -0.504403   -0.039767    2.079387
    4          1             0       -0.504403   -1.552975    1.205736
    5          1             0        1.008806   -0.796371    1.642562
    6          6             0        0.000000   -0.618037   -1.333679
    7          1             0       -0.504403   -1.552975   -1.205736
    8          1             0       -0.504403   -0.039767   -2.079387
    9          1             0        1.008806   -0.796371   -1.642562
   10          8             0        0.000000    1.410362    0.000000
 ---------------------------------------------------------------------
 Rotational constants (GHZ):     10.0886390      8.0410703      4.7324705
 Standard basis: VSTO-3G (5D, 7F)
 There are    13 symmetry adapted basis functions of A'  symmetry.
 There are     9 symmetry adapted basis functions of A"  symmetry.
 Integral buffers will be    262144 words long.
 Raffenetti 1 integral format.
 Two-electron integral symmetry is turned on.
    22 basis functions,    66 primitive gaussians,    22 cartesian basis functions
    12 alpha electrons       12 beta electrons
       nuclear repulsion energy        66.3806083923 Hartrees.
 NAtoms=   10 NActive=   10 NUniq=    6 SFac= 3.59D+00 NAtFMM=   60 Big=F
 Simple Huckel Guess.
 Initial guess orbital symmetries:
       Occupied  (A') (A") (A') (A') (A') (A") (A') (A") (A") (A')
                 (A') (A")
       Virtual   (A') (A") (A') (A") (A') (A") (A') (A') (A") (A')
 The electronic state of the initial guess is 1-A'.
 RHF-PM3 calculation of energy and first derivatives.
 MO and density RWFs will be updated without deorthogonalization.
 Closed-shell calculation:      12 occupied levels.
 NNHCO=    0.
 References:
  H: (PM3): J. J. P. STEWART, J. COMP. CHEM.     10, 209 (1989).
  C: (PM3): J. J. P. STEWART, J. COMP. CHEM.     10, 209 (1989).
  O: (PM3): J. J. P. STEWART, J. COMP. CHEM.     10, 209 (1989).
 Ext34=T Pulay=F Camp-King=F BShift= 0.00D+00
 It=  1 PL= 0.102D+01 DiagD=T ESCF=      4.281536 Diff=-0.548D-01 RMSDP= 0.315D+00.
 It=  2 PL= 0.941D-01 DiagD=T ESCF=     -1.651332 Diff=-0.593D+01 RMSDP= 0.977D-02.
 It=  3 PL= 0.322D-01 DiagD=F ESCF=     -2.020208 Diff=-0.369D+00 RMSDP= 0.469D-02.
 It=  4 PL= 0.443D-02 DiagD=F ESCF=     -2.083202 Diff=-0.630D-01 RMSDP= 0.552D-03.
 It=  5 PL= 0.193D-02 DiagD=F ESCF=     -2.064743 Diff= 0.185D-01 RMSDP= 0.237D-03.
 It=  6 PL= 0.883D-03 DiagD=F ESCF=     -2.064934 Diff=-0.191D-03 RMSDP= 0.233D-03.
 It=  7 PL= 0.158D-03 DiagD=F ESCF=     -2.065058 Diff=-0.124D-03 RMSDP= 0.194D-04.
 It=  8 PL= 0.817D-04 DiagD=F ESCF=     -2.064999 Diff= 0.594D-04 RMSDP= 0.105D-04.
 It=  9 PL= 0.433D-04 DiagD=F ESCF=     -2.064999 Diff=-0.356D-06 RMSDP= 0.141D-04.
 It= 10 PL= 0.484D-05 DiagD=F ESCF=     -2.065000 Diff=-0.415D-06 RMSDP= 0.687D-06.
 It= 11 PL= 0.208D-05 DiagD=F ESCF=     -2.064999 Diff= 0.231D-06 RMSDP= 0.319D-06.
 It= 12 PL= 0.104D-05 DiagD=F ESCF=     -2.064999 Diff=-0.335D-09 RMSDP= 0.372D-06.
 It= 13 PL= 0.284D-06 DiagD=F ESCF=     -2.064999 Diff=-0.295D-09 RMSDP= 0.296D-07.
 Energy=   -0.075888819910 NIter=  14.
 Dipole moment=       0.028999      -1.124990       0.000000

 **********************************************************************

            Population analysis using the SCF density.

 **********************************************************************

 Orbital symmetries:
       Occupied  (A') (A') (A") (A') (A') (A") (A') (A") (A') (A")
                 (A') (A")
       Virtual   (A') (A') (A") (A') (A") (A') (A") (A') (A") (A')
 The electronic state is 1-A'.
 Alpha  occ. eigenvalues --   -1.39710  -1.16792  -1.05003  -0.71369  -0.59708
 Alpha  occ. eigenvalues --   -0.58864  -0.58238  -0.51788  -0.51088  -0.49586
 Alpha  occ. eigenvalues --   -0.45855  -0.39574
 Alpha virt. eigenvalues --    0.02145   0.08359   0.13421   0.13931   0.14681
 Alpha virt. eigenvalues --    0.14835   0.15097   0.15508   0.16814   0.24349
          Condensed to atoms (all electrons):
              1          2          3          4          5          6
     1  C    3.756119   0.000000   0.000000   0.000000   0.000000   0.000000
     2  C    0.000000   4.136253   0.000000   0.000000   0.000000   0.000000
     3  H    0.000000   0.000000   0.933548   0.000000   0.000000   0.000000
     4  H    0.000000   0.000000   0.000000   0.948966   0.000000   0.000000
     5  H    0.000000   0.000000   0.000000   0.000000   0.936803   0.000000
     6  C    0.000000   0.000000   0.000000   0.000000   0.000000   4.136253
     7  H    0.000000   0.000000   0.000000   0.000000   0.000000   0.000000
     8  H    0.000000   0.000000   0.000000   0.000000   0.000000   0.000000
     9  H    0.000000   0.000000   0.000000   0.000000   0.000000   0.000000
    10  O    0.000000   0.000000   0.000000   0.000000   0.000000   0.000000
              7          8          9         10
     1  C    0.000000   0.000000   0.000000   0.000000
     2  C    0.000000   0.000000   0.000000   0.000000
     3  H    0.000000   0.000000   0.000000   0.000000
     4  H    0.000000   0.000000   0.000000   0.000000
     5  H    0.000000   0.000000   0.000000   0.000000
     6  C    0.000000   0.000000   0.000000   0.000000
     7  H    0.948966   0.000000   0.000000   0.000000
     8  H    0.000000   0.933548   0.000000   0.000000
     9  H    0.000000   0.000000   0.936803   0.000000
    10  O    0.000000   0.000000   0.000000   6.332742
 Mulliken atomic charges:
              1
     1  C    0.243881
     2  C   -0.136253
     3  H    0.066452
     4  H    0.051034
     5  H    0.063197
     6  C   -0.136253
     7  H    0.051034
     8  H    0.066452
     9  H    0.063197
    10  O   -0.332742
 Sum of Mulliken charges=   0.00000
 Atomic charges with hydrogens summed into heavy atoms:
              1
     1  C    0.243881
     2  C    0.044431
     3  H    0.000000
     4  H    0.000000
     5  H    0.000000
     6  C    0.044431
     7  H    0.000000
     8  H    0.000000
     9  H    0.000000
    10  O   -0.332742
 Sum of Mulliken charges=   0.00000
 ***** Axes restored to original set *****
 -------------------------------------------------------------------
 Center     Atomic                   Forces (Hartrees/Bohr)
 Number     Number              X              Y              Z
 -------------------------------------------------------------------
    1          6           0.041284275   -0.026144324   -0.028189353
    2          6          -0.002421989    0.003766987   -0.047480078
    3          1           0.017474291   -0.000562128    0.009110992
    4          1          -0.008916962    0.014929389    0.008377612
    5          1          -0.008954192   -0.015335410    0.006847804
    6          6           0.034911892   -0.017787739    0.027187685
    7          1          -0.008624003    0.014760249    0.008963531
    8          1           0.003966484    0.007236608   -0.017904623
    9          1          -0.014052437   -0.012391937   -0.003348685
   10          8          -0.054667357    0.031528306    0.036435116
 -------------------------------------------------------------------
 Cartesian Forces:  Max     0.054667357 RMS     0.022574666

 GradGradGradGradGradGradGradGradGradGradGradGradGradGradGradGradGradGrad
 Berny optimization.
 Internal  Forces:  Max     0.072870233 RMS     0.017095285
 Search for a local minimum.
 Step number   1 out of a maximum of  40
 All quantities printed in internal units (Hartrees-Bohrs-Radians)
 Second derivative matrix not updated -- first step.
 RFO step:  Lambda= 3.10923904D-03.
 Linear search not attempted -- first point.
 Iteration  1 RMS(Cart)=  0.05115700 RMS(Int)=  0.00113072
 Iteration  2 RMS(Cart)=  0.00140038 RMS(Int)=  0.00023867
 Iteration  3 RMS(Cart)=  0.00000191 RMS(Int)=  0.00023866
 Iteration  4 RMS(Cart)=  0.00000000 RMS(Int)=  0.00023866
 Variable       Old X    -DE/DX   Delta X   Delta X   Delta X     New X
                                 (Linear)    (Quad)   (Total)
    R1        2.91018  -0.02314   0.00000  -0.07854  -0.07854   2.83164
    R2        2.91018  -0.02314   0.00000  -0.07854  -0.07854   2.83164
    R3        2.37803  -0.07287   0.00000  -0.09059  -0.09059   2.28744
    R4        2.02201   0.01951   0.00000   0.05233   0.05233   2.07433
    R5        2.02201   0.01919   0.00000   0.05118   0.05118   2.07319
    R6        2.02201   0.01902   0.00000   0.05100   0.05100   2.07301
    R7        2.02201   0.01919   0.00000   0.05118   0.05118   2.07319
    R8        2.02201   0.01951   0.00000   0.05233   0.05233   2.07433
    R9        2.02201   0.01902   0.00000   0.05101   0.05100   2.07301
    A1        2.09440  -0.00820   0.00000  -0.02872  -0.02938   2.06502
    A2        2.09440   0.00410   0.00000   0.01436   0.01369   2.10808
    A3        2.09440   0.00410   0.00000   0.01436   0.01369   2.10808
    A4        1.91063   0.00379   0.00000   0.02259   0.02243   1.93307
    A5        1.91063   0.00235   0.00000   0.01781   0.01766   1.92829
    A6        1.91063  -0.00068   0.00000  -0.00270  -0.00271   1.90792
    A7        1.91063  -0.00193   0.00000  -0.00903  -0.00931   1.90133
    A8        1.91063  -0.00167   0.00000  -0.01511  -0.01512   1.89551
    A9        1.91063  -0.00187   0.00000  -0.01356  -0.01356   1.89707
   A10        1.91063   0.00235   0.00000   0.01778   0.01766   1.92829
   A11        1.91063   0.00379   0.00000   0.02252   0.02243   1.93307
   A12        1.91063  -0.00067   0.00000  -0.00260  -0.00271   1.90792
   A13        1.91063  -0.00195   0.00000  -0.00926  -0.00931   1.90133
   A14        1.91063  -0.00186   0.00000  -0.01341  -0.01356   1.89707
   A15        1.91063  -0.00166   0.00000  -0.01503  -0.01512   1.89551
    D1       -2.61799  -0.00086   0.00000  -0.05354  -0.05369  -2.67168
    D2       -0.52360   0.00054   0.00000  -0.03985  -0.03969  -0.56329
    D3        0.52360  -0.00043   0.00000   0.01391   0.01378   0.53738
    D4        0.52360  -0.00007   0.00000   0.04083   0.03969   0.56329
    D5        2.61799   0.00131   0.00000   0.05418   0.05369   2.67168
    D6       -2.61799  -0.00049   0.00000  -0.02661  -0.02778  -2.64577
         Item               Value     Threshold  Converged?
 Maximum Force            0.072870     0.000450     NO 
 RMS     Force            0.017095     0.000300     NO 
 Maximum Displacement     0.115055     0.001800     NO 
 RMS     Displacement     0.051803     0.001200     NO 
 Predicted change in Energy=-8.638132D-03
 GradGradGradGradGradGradGradGradGradGradGradGradGradGradGradGradGradGrad

                          Input orientation:                          
 ---------------------------------------------------------------------
 Center     Atomic     Atomic              Coordinates (Angstroms)
 Number     Number      Type              X           Y           Z
 ---------------------------------------------------------------------
    1          6             0        0.025644    0.022405   -0.006354
    2          6             0       -0.006399    0.010126    1.491693
    3          1             0        1.011204   -0.017537    1.902355
    4          1             0       -0.519715    0.902001    1.872029
    5          1             0       -0.546987   -0.880242    1.835782
    6          6             0       -1.120577    0.653397   -0.736663
    7          1             0       -1.533555    1.487342   -0.155650
    8          1             0       -0.798561    1.027331   -1.717174
    9          1             0       -1.909281   -0.093721   -0.888807
   10          8             0        0.919174   -0.525968   -0.611421
 ---------------------------------------------------------------------
                    Distance matrix (angstroms):
                    1          2          3          4          5
     1  C    0.000000
     2  C    1.498441   0.000000
     3  H    2.148510   1.097690   0.000000
     4  H    2.144628   1.097083   1.786109   0.000000
     5  H    2.129823   1.096990   1.782316   1.782821   0.000000
     6  C    1.498441   2.573085   3.458188   2.688515   3.049349
     7  H    2.144628   2.688515   3.602200   2.341362   3.247241
     8  H    2.148510   3.458188   4.179473   3.602200   4.040498
     9  H    2.129823   3.049349   4.040498   3.247241   3.146085
    10  O    1.210460   2.359485   2.566328   3.205779   2.874707
                    6          7          8          9         10
     6  C    0.000000
     7  H    1.097083   0.000000
     8  H    1.097690   1.786109   0.000000
     9  H    1.096990   1.782821   1.782316   0.000000
    10  O    2.359485   3.205779   2.566328   2.874707   0.000000
 Stoichiometry    C3H6O
 Framework group  CS[SG(CO),X(C2H6)]
 Deg. of freedom    13
 Full point group                 CS      NOp   2
 Largest Abelian subgroup         CS      NOp   2
 Largest concise Abelian subgroup CS      NOp   2
                         Standard orientation:                         
 ---------------------------------------------------------------------
 Center     Atomic     Atomic              Coordinates (Angstroms)
 Number     Number      Type              X           Y           Z
 ---------------------------------------------------------------------
    1          6             0       -0.018812    0.166538    0.000000
    2          6             0       -0.018812   -0.601663    1.286542
    3          1             0       -0.483591   -0.015334    2.089737
    4          1             0       -0.567587   -1.544538    1.170681
    5          1             0        1.015277   -0.829627    1.573042
    6          6             0       -0.018812   -0.601663   -1.286542
    7          1             0       -0.567587   -1.544538   -1.170681
    8          1             0       -0.483591   -0.015334   -2.089737
    9          1             0        1.015277   -0.829627   -1.573042
   10          8             0        0.051302    1.374966    0.000000
 ---------------------------------------------------------------------
 Rotational constants (GHZ):     10.4583590      8.4965319      4.9841919
 Standard basis: VSTO-3G (5D, 7F)
 There are    13 symmetry adapted basis functions of A'  symmetry.
 There are     9 symmetry adapted basis functions of A"  symmetry.
 Integral buffers will be    262144 words long.
 Raffenetti 1 integral format.
 Two-electron integral symmetry is turned on.
    22 basis functions,    66 primitive gaussians,    22 cartesian basis functions
    12 alpha electrons       12 beta electrons
       nuclear repulsion energy        67.3891891045 Hartrees.
 NAtoms=   10 NActive=   10 NUniq=    6 SFac= 3.59D+00 NAtFMM=   60 Big=F
 Initial guess read from the read-write file:
 Initial guess orbital symmetries:
       Occupied  (A') (A') (A") (A') (A') (A") (A') (A") (A') (A")
                 (A') (A")
       Virtual   (A') (A') (A") (A') (A") (A') (A") (A') (A") (A')
 RHF-PM3 calculation of energy and first derivatives.
 MO and density RWFs will be updated without deorthogonalization.
 Closed-shell calculation:      12 occupied levels.
 NNHCO=    0.
 References:
  H: (PM3): J. J. P. STEWART, J. COMP. CHEM.     10, 209 (1989).
  C: (PM3): J. J. P. STEWART, J. COMP. CHEM.     10, 209 (1989).
  O: (PM3): J. J. P. STEWART, J. COMP. CHEM.     10, 209 (1989).
 Ext34=T Pulay=F Camp-King=F BShift= 0.00D+00
 It=  1 PL= 0.981D+00 DiagD=T ESCF=      1.230180 Diff=-0.311D+01 RMSDP= 0.315D+00.
 It=  2 PL= 0.444D-01 DiagD=T ESCF=     -2.029533 Diff=-0.326D+01 RMSDP= 0.708D-02.
 It=  3 PL= 0.133D-01 DiagD=F ESCF=     -2.245454 Diff=-0.216D+00 RMSDP= 0.349D-02.
 It=  4 PL= 0.309D-02 DiagD=F ESCF=     -2.280391 Diff=-0.349D-01 RMSDP= 0.391D-03.
 It=  5 PL= 0.139D-02 DiagD=F ESCF=     -2.269698 Diff= 0.107D-01 RMSDP= 0.182D-03.
 It=  6 PL= 0.664D-03 DiagD=F ESCF=     -2.269803 Diff=-0.105D-03 RMSDP= 0.175D-03.
 It=  7 PL= 0.337D-04 DiagD=F ESCF=     -2.269868 Diff=-0.649D-04 RMSDP= 0.773D-05.
 It=  8 PL= 0.157D-04 DiagD=F ESCF=     -2.269837 Diff= 0.307D-04 RMSDP= 0.352D-05.
 It=  9 PL= 0.779D-05 DiagD=F ESCF=     -2.269837 Diff=-0.388D-07 RMSDP= 0.357D-05.
 It= 10 PL= 0.134D-05 DiagD=F ESCF=     -2.269837 Diff=-0.259D-07 RMSDP= 0.162D-06.
 It= 11 PL= 0.505D-06 DiagD=F ESCF=     -2.269837 Diff= 0.131D-07 RMSDP= 0.551D-07.
 Energy=   -0.083416613999 NIter=  12.
 Dipole moment=      -0.006813      -1.057153       0.000000
 ***** Axes restored to original set *****
 -------------------------------------------------------------------
 Center     Atomic                   Forces (Hartrees/Bohr)
 Number     Number              X              Y              Z
 -------------------------------------------------------------------
    1          6          -0.007277407   -0.004196921    0.002427157
    2          6          -0.001163008    0.004411761    0.000383720
    3          1          -0.001525795   -0.000183648    0.002936329
    4          1           0.000736159   -0.001057226    0.002744954
    5          1           0.000124005    0.000618384    0.001760360
    6          6          -0.000059497    0.003774648    0.002590744
    7          1          -0.001827512    0.000422910   -0.002382388
    8          1          -0.003195630    0.000780431   -0.000403340
    9          1          -0.001108883    0.001330192   -0.000705416
   10          8           0.015297568   -0.005900531   -0.009352120
 -------------------------------------------------------------------
 Cartesian Forces:  Max     0.015297568 RMS     0.004171477

 GradGradGradGradGradGradGradGradGradGradGradGradGradGradGradGradGradGrad
 Berny optimization.
 Internal  Forces:  Max     0.018640166 RMS     0.004698434
 Search for a local minimum.
 Step number   2 out of a maximum of  40
 All quantities printed in internal units (Hartrees-Bohrs-Radians)
   2   1  0.2711335E-02  0.5883544E-02  0.4608337    
 Update second derivatives using D2CorL and points  1  2
 Trust test= 8.71D-01 RLast= 2.24D-01 DXMaxT set to 4.24D-01
 RFO step:  Lambda= 4.73294131D-04.
 Quartic linear search produced a step of -0.11847.
 Iteration  1 RMS(Cart)=  0.05025712 RMS(Int)=  0.05007080
 Iteration  2 RMS(Cart)=  0.05250110 RMS(Int)=  0.00938985
 Iteration  3 RMS(Cart)=  0.00393332 RMS(Int)=  0.00863188
 Iteration  4 RMS(Cart)=  0.00002168 RMS(Int)=  0.00863186
 Iteration  5 RMS(Cart)=  0.00000040 RMS(Int)=  0.00863186
 Variable       Old X    -DE/DX   Delta X   Delta X   Delta X     New X
                                 (Linear)    (Quad)   (Total)
    R1        2.83164   0.00783   0.00930  -0.00619   0.00306   2.83470
    R2        2.83164   0.00783   0.00930  -0.00619   0.00306   2.83470
    R3        2.28744   0.01864   0.01073  -0.00865   0.00208   2.28952
    R4        2.07433  -0.00031  -0.00620   0.01072   0.00452   2.07886
    R5        2.07319  -0.00025  -0.00606   0.01070   0.00464   2.07783
    R6        2.07301  -0.00001  -0.00604   0.01072   0.00467   2.07769
    R7        2.07319  -0.00025  -0.00606   0.01070   0.00464   2.07783
    R8        2.07433  -0.00031  -0.00620   0.01072   0.00452   2.07886
    R9        2.07301  -0.00001  -0.00604   0.01072   0.00467   2.07769
    A1        2.06502  -0.00662   0.00348  -0.01160  -0.03446   2.03055
    A2        2.10808   0.00344  -0.00162   0.01833  -0.01030   2.09778
    A3        2.10808   0.00342  -0.00162   0.01841  -0.01030   2.09778
    A4        1.93307   0.00375  -0.00266   0.01657   0.01417   1.94724
    A5        1.92829   0.00295  -0.00209   0.01159   0.00978   1.93808
    A6        1.90792   0.00153   0.00032   0.00062   0.00034   1.90826
    A7        1.90133  -0.00391   0.00110  -0.01133  -0.00918   1.89214
    A8        1.89551  -0.00205   0.00179  -0.00833  -0.00712   1.88839
    A9        1.89707  -0.00249   0.00161  -0.00996  -0.00893   1.88814
   A10        1.92829   0.00332  -0.00209   0.01291   0.00978   1.93808
   A11        1.93307   0.00413  -0.00266   0.01788   0.01417   1.94724
   A12        1.90792   0.00080   0.00032  -0.00197   0.00034   1.90826
   A13        1.90133  -0.00251   0.00110  -0.00641  -0.00918   1.89214
   A14        1.89707  -0.00321   0.00161  -0.01251  -0.00893   1.88814
   A15        1.89551  -0.00277   0.00179  -0.01087  -0.00712   1.88839
    D1       -2.67168   0.00121   0.00636   0.02951   0.03206  -2.63963
    D2       -0.56329   0.00073   0.00470   0.03392   0.03661  -0.52668
    D3        0.53738  -0.00304  -0.00163  -0.39380  -0.39109   0.14630
    D4        0.56329  -0.00164  -0.00470  -0.03848  -0.03661   0.52668
    D5        2.67168   0.00013  -0.00636  -0.02615  -0.03206   2.63963
    D6       -2.64577   0.00260   0.00329   0.38482   0.38653  -2.25925
         Item               Value     Threshold  Converged?
 Maximum Force            0.018640     0.000450     NO 
 RMS     Force            0.004698     0.000300     NO 
 Maximum Displacement     0.349970     0.001800     NO 
 RMS     Displacement     0.099995     0.001200     NO 
 Predicted change in Energy=-1.451306D-03
 GradGradGradGradGradGradGradGradGradGradGradGradGradGradGradGradGradGrad

                          Input orientation:                          
 ---------------------------------------------------------------------
 Center     Atomic     Atomic              Coordinates (Angstroms)
 Number     Number      Type              X           Y           Z
 ---------------------------------------------------------------------
    1          6             0       -0.005939   -0.080554   -0.020284
    2          6             0       -0.020132   -0.012343    1.478158
    3          1             0        0.995919   -0.073423    1.895403
    4          1             0       -0.482997    0.922223    1.826481
    5          1             0       -0.605565   -0.853967    1.875344
    6          6             0       -1.123873    0.624903   -0.729325
    7          1             0       -1.472066    1.493263   -0.151659
    8          1             0       -0.814999    0.972111   -1.726434
    9          1             0       -1.969875   -0.066282   -0.853277
   10          8             0        1.020670   -0.340772   -0.608707
 ---------------------------------------------------------------------
                    Distance matrix (angstroms):
                    1          2          3          4          5
     1  C    0.000000
     2  C    1.500061   0.000000
     3  H    2.161858   1.100084   0.000000
     4  H    2.154921   1.099539   1.784167   0.000000
     5  H    2.133337   1.099464   1.781685   1.781084   0.000000
     6  C    1.500061   2.548982   3.445341   2.651653   3.039737
     7  H    2.154921   2.651653   3.568742   2.284159   3.220101
     8  H    2.161858   3.445341   4.182138   3.568742   4.043666
     9  H    2.133337   3.039737   4.043666   3.220101   3.150740
    10  O    1.211561   2.355024   2.518463   3.128308   3.013058
                    6          7          8          9         10
     6  C    0.000000
     7  H    1.099539   0.000000
     8  H    1.100084   1.784167   0.000000
     9  H    1.099464   1.781084   1.781685   0.000000
    10  O    2.355024   3.128308   2.518463   3.013058   0.000000
 Stoichiometry    C3H6O
 Framework group  CS[SG(CO),X(C2H6)]
 Deg. of freedom    13
 Full point group                 CS      NOp   2
 Largest Abelian subgroup         CS      NOp   2
 Largest concise Abelian subgroup CS      NOp   2
                         Standard orientation:                         
 ---------------------------------------------------------------------
 Center     Atomic     Atomic              Coordinates (Angstroms)
 Number     Number      Type              X           Y           Z
 ---------------------------------------------------------------------
    1          6             0        0.089334    0.194827    0.000000
    2          6             0        0.089334   -0.596284    1.274491
    3          1             0       -0.402909   -0.047575    2.091069
    4          1             0       -0.426505   -1.558242    1.142080
    5          1             0        1.126663   -0.801809    1.575370
    6          6             0        0.089334   -0.596284   -1.274491
    7          1             0       -0.426505   -1.558242   -1.142080
    8          1             0       -0.402909   -0.047575   -2.091069
    9          1             0        1.126663   -0.801809   -1.575370
   10          8             0       -0.275313    1.350212    0.000000
 ---------------------------------------------------------------------
 Rotational constants (GHZ):     10.3779502      8.5917461      5.0169744
 Standard basis: VSTO-3G (5D, 7F)
 There are    13 symmetry adapted basis functions of A'  symmetry.
 There are     9 symmetry adapted basis functions of A"  symmetry.
 Integral buffers will be    262144 words long.
 Raffenetti 1 integral format.
 Two-electron integral symmetry is turned on.
    22 basis functions,    66 primitive gaussians,    22 cartesian basis functions
    12 alpha electrons       12 beta electrons
       nuclear repulsion energy        67.4059441045 Hartrees.
 NAtoms=   10 NActive=   10 NUniq=    6 SFac= 3.59D+00 NAtFMM=   60 Big=F
 Initial guess read from the read-write file:
 Initial guess orbital symmetries:
       Occupied  (A') (A') (A") (A') (A") (A') (A') (A") (A') (A")
                 (A') (A")
       Virtual   (A') (A') (A") (A') (A") (A') (A") (A') (A") (A')
 RHF-PM3 calculation of energy and first derivatives.
 MO and density RWFs will be updated without deorthogonalization.
 Closed-shell calculation:      12 occupied levels.
 NNHCO=    0.
 References:
  H: (PM3): J. J. P. STEWART, J. COMP. CHEM.     10, 209 (1989).
  C: (PM3): J. J. P. STEWART, J. COMP. CHEM.     10, 209 (1989).
  O: (PM3): J. J. P. STEWART, J. COMP. CHEM.     10, 209 (1989).
 Ext34=T Pulay=F Camp-King=F BShift= 0.00D+00
 It=  1 PL= 0.986D+00 DiagD=T ESCF=      3.476066 Diff=-0.860D+00 RMSDP= 0.315D+00.
 It=  2 PL= 0.448D-01 DiagD=T ESCF=     -1.493059 Diff=-0.497D+01 RMSDP= 0.120D-01.
 It=  3 PL= 0.154D-01 DiagD=F ESCF=     -2.018251 Diff=-0.525D+00 RMSDP= 0.731D-02.
 It=  4 PL= 0.166D-02 DiagD=F ESCF=     -2.158131 Diff=-0.140D+00 RMSDP= 0.117D-02.
 It=  5 PL= 0.954D-03 DiagD=F ESCF=     -2.124043 Diff= 0.341D-01 RMSDP= 0.544D-03.
 3-point extrapolation.
 It=  6 PL= 0.545D-03 DiagD=F ESCF=     -2.124956 Diff=-0.912D-03 RMSDP= 0.590D-03.
 It=  7 PL= 0.863D-02 DiagD=F ESCF=     -2.167429 Diff=-0.425D-01 RMSDP= 0.369D-02.
 It=  8 PL= 0.371D-02 DiagD=F ESCF=     -2.111830 Diff= 0.556D-01 RMSDP= 0.182D-02.
 It=  9 PL= 0.211D-02 DiagD=F ESCF=     -2.121994 Diff=-0.102D-01 RMSDP= 0.209D-02.
 It= 10 PL= 0.381D-03 DiagD=F ESCF=     -2.130239 Diff=-0.825D-02 RMSDP= 0.181D-03.
 It= 11 PL= 0.217D-03 DiagD=F ESCF=     -2.125203 Diff= 0.504D-02 RMSDP= 0.924D-04.
 3-point extrapolation.
 It= 12 PL= 0.107D-03 DiagD=F ESCF=     -2.125229 Diff=-0.264D-04 RMSDP= 0.880D-04.
 It= 13 PL= 0.232D-02 DiagD=F ESCF=     -2.128895 Diff=-0.367D-02 RMSDP= 0.914D-03.
 It= 14 PL= 0.114D-02 DiagD=F ESCF=     -2.124432 Diff= 0.446D-02 RMSDP= 0.449D-03.
 It= 15 PL= 0.552D-03 DiagD=F ESCF=     -2.125052 Diff=-0.620D-03 RMSDP= 0.442D-03.
 It= 16 PL= 0.549D-04 DiagD=F ESCF=     -2.125445 Diff=-0.392D-03 RMSDP= 0.175D-04.
 It= 17 PL= 0.315D-04 DiagD=F ESCF=     -2.125237 Diff= 0.208D-03 RMSDP= 0.993D-05.
 It= 18 PL= 0.171D-04 DiagD=F ESCF=     -2.125237 Diff=-0.319D-06 RMSDP= 0.108D-04.
 It= 19 PL= 0.408D-05 DiagD=F ESCF=     -2.125237 Diff=-0.239D-06 RMSDP= 0.810D-06.
 It= 20 PL= 0.212D-05 DiagD=F ESCF=     -2.125237 Diff= 0.136D-06 RMSDP= 0.423D-06.
 It= 21 PL= 0.106D-05 DiagD=F ESCF=     -2.125237 Diff=-0.574D-09 RMSDP= 0.430D-06.
 It= 22 PL= 0.152D-06 DiagD=F ESCF=     -2.125237 Diff=-0.390D-09 RMSDP= 0.294D-07.
 Energy=   -0.078102556431 NIter=  23.
 Dipole moment=       0.269756      -1.025198       0.000000
 ***** Axes restored to original set *****
 -------------------------------------------------------------------
 Center     Atomic                   Forces (Hartrees/Bohr)
 Number     Number              X              Y              Z
 -------------------------------------------------------------------
    1          6           0.011503682    0.040130294    0.005832777
    2          6          -0.006670538   -0.012438335    0.005098127
    3          1          -0.002292036   -0.000073129    0.001400160
    4          1           0.001038804   -0.001681246    0.000420293
    5          1           0.000947218    0.001888062    0.002100969
    6          6          -0.010685659   -0.010120204   -0.002932116
    7          1          -0.000029968   -0.001064191   -0.001717250
    8          1          -0.002498476    0.000046059    0.000987281
    9          1          -0.000574938    0.002766879   -0.000943343
   10          8           0.009261911   -0.019454191   -0.010246897
 -------------------------------------------------------------------
 Cartesian Forces:  Max     0.040130294 RMS     0.009724192

 GradGradGradGradGradGradGradGradGradGradGradGradGradGradGradGradGradGrad
 Berny optimization.
 Internal  Forces:  Max     0.017003014 RMS     0.007034817
 Search for a local minimum.
 Step number   3 out of a maximum of  40
 All quantities printed in internal units (Hartrees-Bohrs-Radians)
   2   1  0.1378028E-01  0.2142308E-01  0.6432444    
 Update second derivatives using D2CorL and points  2  3
 Trust test=-3.66D+00 RLast= 5.56D-01 DXMaxT set to 2.12D-01
 Energy Rises -- skip Quadratic search.
 Quartic linear search produced a step of -0.82059.
 Iteration  1 RMS(Cart)=  0.05190660 RMS(Int)=  0.03169460
 Iteration  2 RMS(Cart)=  0.03358104 RMS(Int)=  0.00194228
 Iteration  3 RMS(Cart)=  0.00160607 RMS(Int)=  0.00124923
 Iteration  4 RMS(Cart)=  0.00000083 RMS(Int)=  0.00124923
 Variable       Old X    -DE/DX   Delta X   Delta X   Delta X     New X
                                 (Linear)    (Quad)   (Total)
    R1        2.83470   0.00852  -0.00251   0.00000  -0.00251   2.83219
    R2        2.83470   0.00852  -0.00251   0.00000  -0.00251   2.83219
    R3        2.28952   0.01700  -0.00171   0.00000  -0.00171   2.28781
    R4        2.07886  -0.00158  -0.00371   0.00000  -0.00371   2.07515
    R5        2.07783  -0.00173  -0.00381   0.00000  -0.00381   2.07402
    R6        2.07769  -0.00119  -0.00384   0.00000  -0.00384   2.07385
    R7        2.07783  -0.00173  -0.00381   0.00000  -0.00381   2.07402
    R8        2.07886  -0.00158  -0.00371   0.00000  -0.00371   2.07515
    R9        2.07769  -0.00119  -0.00384   0.00000  -0.00384   2.07385
    A1        2.03055   0.00168   0.02828   0.00000   0.03223   2.06279
    A2        2.09778   0.00379   0.00845   0.00000   0.01240   2.11018
    A3        2.09778   0.00373   0.00845   0.00000   0.01240   2.11018
    A4        1.94724   0.00364  -0.01163   0.00000  -0.01162   1.93562
    A5        1.93808   0.00110  -0.00803   0.00000  -0.00802   1.93006
    A6        1.90826   0.00119  -0.00028   0.00000  -0.00027   1.90798
    A7        1.89214   0.00228   0.00753   0.00000   0.00754   1.89969
    A8        1.88839  -0.00407   0.00585   0.00000   0.00585   1.89423
    A9        1.88814  -0.00453   0.00733   0.00000   0.00733   1.89547
   A10        1.93808  -0.00115  -0.00803   0.00000  -0.00802   1.93006
   A11        1.94724   0.00146  -0.01163   0.00000  -0.01162   1.93562
   A12        1.90826   0.00554  -0.00028   0.00000  -0.00027   1.90798
   A13        1.89214  -0.00570   0.00753   0.00000   0.00754   1.89969
   A14        1.88814  -0.00037   0.00733   0.00000   0.00733   1.89547
   A15        1.88839   0.00013   0.00585   0.00000   0.00585   1.89423
    D1       -2.63963  -0.01195  -0.02630   0.00000  -0.02629  -2.66592
    D2       -0.52668  -0.00578  -0.03005   0.00000  -0.03005  -0.55673
    D3        0.14630   0.01639   0.32092   0.00000   0.32091   0.46721
    D4        0.52668   0.01225   0.03005   0.00000   0.03005   0.55673
    D5        2.63963   0.00518   0.02630   0.00000   0.02629   2.66592
    D6       -2.25925  -0.01609  -0.31718   0.00000  -0.31715  -2.57640
         Item               Value     Threshold  Converged?
 Maximum Force            0.017003     0.000450     NO 
 RMS     Force            0.007035     0.000300     NO 
 Maximum Displacement     0.291170     0.001800     NO 
 RMS     Displacement     0.082352     0.001200     NO 
 Predicted change in Energy=-3.741388D-04
 GradGradGradGradGradGradGradGradGradGradGradGradGradGradGradGradGradGrad

                          Input orientation:                          
 ---------------------------------------------------------------------
 Center     Atomic     Atomic              Coordinates (Angstroms)
 Number     Number      Type              X           Y           Z
 ---------------------------------------------------------------------
    1          6             0        0.018053    0.004879   -0.007618
    2          6             0       -0.008533    0.006032    1.490876
    3          1             0        1.009608   -0.028692    1.900816
    4          1             0       -0.511697    0.905906    1.867186
    5          1             0       -0.557367   -0.875886    1.844944
    6          6             0       -1.122184    0.648999   -0.736426
    7          1             0       -1.524066    1.490398   -0.157551
    8          1             0       -0.800819    1.016558   -1.720038
    9          1             0       -1.921697   -0.088189   -0.883716
   10          8             0        0.939864   -0.494852   -0.612783
 ---------------------------------------------------------------------
                    Distance matrix (angstroms):
                    1          2          3          4          5
     1  C    0.000000
     2  C    1.498730   0.000000
     3  H    2.150913   1.098120   0.000000
     4  H    2.146480   1.097524   1.785770   0.000000
     5  H    2.130455   1.097434   1.782209   1.782516   0.000000
     6  C    1.498730   2.571867   3.458156   2.686539   3.050863
     7  H    2.146480   2.686539   3.600557   2.337965   3.247120
     8  H    2.150913   3.458156   4.181001   3.600557   4.043477
     9  H    2.130455   3.050863   4.043477   3.247120   3.150785
    10  O    1.210657   2.361297   2.557411   3.196780   2.902983
                    6          7          8          9         10
     6  C    0.000000
     7  H    1.097524   0.000000
     8  H    1.098120   1.785770   0.000000
     9  H    1.097434   1.782516   1.782209   0.000000
    10  O    2.361297   3.196780   2.557411   2.902983   0.000000
 Stoichiometry    C3H6O
 Framework group  CS[SG(CO),X(C2H6)]
 Deg. of freedom    13
 Full point group                 CS      NOp   2
 Largest Abelian subgroup         CS      NOp   2
 Largest concise Abelian subgroup CS      NOp   2
                         Standard orientation:                         
 ---------------------------------------------------------------------
 Center     Atomic     Atomic              Coordinates (Angstroms)
 Number     Number      Type              X           Y           Z
 ---------------------------------------------------------------------
    1          6             0        0.000820    0.167142    0.000000
    2          6             0        0.000820   -0.602642    1.285934
    3          1             0       -0.468955   -0.021393    2.090501
    4          1             0       -0.542100   -1.549277    1.168983
    5          1             0        1.035565   -0.825974    1.575393
    6          6             0        0.000820   -0.602642   -1.285934
    7          1             0       -0.542100   -1.549277   -1.168983
    8          1             0       -0.468955   -0.021393   -2.090501
    9          1             0        1.035565   -0.825974   -1.575393
   10          8             0       -0.007973    1.377768    0.000000
 ---------------------------------------------------------------------
 Rotational constants (GHZ):     10.4336191      8.5008959      4.9794459
 Standard basis: VSTO-3G (5D, 7F)
 There are    13 symmetry adapted basis functions of A'  symmetry.
 There are     9 symmetry adapted basis functions of A"  symmetry.
 Integral buffers will be    262144 words long.
 Raffenetti 1 integral format.
 Two-electron integral symmetry is turned on.
    22 basis functions,    66 primitive gaussians,    22 cartesian basis functions
    12 alpha electrons       12 beta electrons
       nuclear repulsion energy        67.3628774586 Hartrees.
 NAtoms=   10 NActive=   10 NUniq=    6 SFac= 3.59D+00 NAtFMM=   60 Big=F
 Initial guess read from the read-write file:
 Initial guess orbital symmetries:
       Occupied  (A') (A') (A") (A') (A") (A') (A') (A') (A") (A")
                 (A') (A")
       Virtual   (A') (A') (A") (A') (A") (A') (A") (A') (A") (A')
 RHF-PM3 calculation of energy and first derivatives.
 MO and density RWFs will be updated without deorthogonalization.
 Closed-shell calculation:      12 occupied levels.
 NNHCO=    0.
 References:
  H: (PM3): J. J. P. STEWART, J. COMP. CHEM.     10, 209 (1989).
  C: (PM3): J. J. P. STEWART, J. COMP. CHEM.     10, 209 (1989).
  O: (PM3): J. J. P. STEWART, J. COMP. CHEM.     10, 209 (1989).
 Ext34=T Pulay=F Camp-King=F BShift= 0.00D+00
 It=  1 PL= 0.985D+00 DiagD=T ESCF=      2.648705 Diff=-0.169D+01 RMSDP= 0.315D+00.
 It=  2 PL= 0.441D-01 DiagD=T ESCF=     -1.778234 Diff=-0.443D+01 RMSDP= 0.105D-01.
 It=  3 PL= 0.147D-01 DiagD=F ESCF=     -2.198469 Diff=-0.420D+00 RMSDP= 0.646D-02.
 It=  4 PL= 0.298D-02 DiagD=F ESCF=     -2.307168 Diff=-0.109D+00 RMSDP= 0.872D-03.
 It=  5 PL= 0.114D-02 DiagD=F ESCF=     -2.276198 Diff= 0.310D-01 RMSDP= 0.400D-03.
 3-point extrapolation.
 It=  6 PL= 0.488D-03 DiagD=F ESCF=     -2.276697 Diff=-0.499D-03 RMSDP= 0.374D-03.
 It=  7 PL= 0.675D-02 DiagD=F ESCF=     -2.314249 Diff=-0.376D-01 RMSDP= 0.283D-02.
 It=  8 PL= 0.369D-02 DiagD=F ESCF=     -2.269099 Diff= 0.452D-01 RMSDP= 0.138D-02.
 It=  9 PL= 0.171D-02 DiagD=F ESCF=     -2.275025 Diff=-0.593D-02 RMSDP= 0.137D-02.
 It= 10 PL= 0.142D-03 DiagD=F ESCF=     -2.278864 Diff=-0.384D-02 RMSDP= 0.472D-04.
 It= 11 PL= 0.129D-03 DiagD=F ESCF=     -2.276844 Diff= 0.202D-02 RMSDP= 0.258D-04.
 It= 12 PL= 0.562D-04 DiagD=F ESCF=     -2.276846 Diff=-0.211D-05 RMSDP= 0.257D-04.
 It= 13 PL= 0.785D-05 DiagD=F ESCF=     -2.276848 Diff=-0.140D-05 RMSDP= 0.140D-05.
 It= 14 PL= 0.444D-05 DiagD=F ESCF=     -2.276847 Diff= 0.717D-06 RMSDP= 0.786D-06.
 It= 15 PL= 0.250D-05 DiagD=F ESCF=     -2.276847 Diff=-0.206D-08 RMSDP= 0.105D-05.
 It= 16 PL= 0.422D-06 DiagD=F ESCF=     -2.276847 Diff=-0.227D-08 RMSDP= 0.666D-07.
 Energy=   -0.083674229803 NIter=  17.
 Dipole moment=       0.044844      -1.060497       0.000000
 ***** Axes restored to original set *****
 -------------------------------------------------------------------
 Center     Atomic                   Forces (Hartrees/Bohr)
 Number     Number              X              Y              Z
 -------------------------------------------------------------------
    1          6          -0.003113941    0.003234073    0.002490567
    2          6          -0.002372295    0.001565376    0.000653804
    3          1          -0.001660186   -0.000161794    0.002629044
    4          1           0.000790425   -0.001172824    0.002310573
    5          1           0.000267383    0.000843725    0.001789583
    6          6          -0.001634125    0.001139193    0.002130147
    7          1          -0.001492838    0.000145419   -0.002255953
    8          1          -0.003044429    0.000637399   -0.000139441
    9          1          -0.000992401    0.001571062   -0.000729985
   10          8           0.013252406   -0.007801629   -0.008878339
 -------------------------------------------------------------------
 Cartesian Forces:  Max     0.013252406 RMS     0.003654792

 GradGradGradGradGradGradGradGradGradGradGradGradGradGradGradGradGradGrad
 Berny optimization.
 Internal  Forces:  Max     0.017748861 RMS     0.004378973
 Search for a local minimum.
 Step number   4 out of a maximum of  40
 All quantities printed in internal units (Hartrees-Bohrs-Radians)
   4   1  0.3453637E-03  0.1417684E-02  0.2436113    
   3   1 -0.8846652E-04  0.2084511E-02  0.4243993E-01
   2   1 -0.2177888E-04  0.1500298E-03  0.1451637    
 Update second derivatives using D2CorL and points  1  3  2  4
 RFO step:  Lambda= 2.48556211D-04.
 Quartic linear search produced a step of -0.00128.
 Iteration  1 RMS(Cart)=  0.07750086 RMS(Int)=  0.00265973
 Iteration  2 RMS(Cart)=  0.00332124 RMS(Int)=  0.00006092
 Iteration  3 RMS(Cart)=  0.00000548 RMS(Int)=  0.00006079
 Iteration  4 RMS(Cart)=  0.00000000 RMS(Int)=  0.00006079
 Variable       Old X    -DE/DX   Delta X   Delta X   Delta X     New X
                                 (Linear)    (Quad)   (Total)
    R1        2.83219   0.00744   0.00000   0.01594   0.01594   2.84813
    R2        2.83219   0.00744   0.00000   0.01594   0.01594   2.84813
    R3        2.28781   0.01775   0.00000   0.01305   0.01305   2.30086
    R4        2.07515  -0.00055   0.00000   0.00117   0.00117   2.07631
    R5        2.07402  -0.00053   0.00000   0.00126   0.00126   2.07528
    R6        2.07385  -0.00023   0.00000   0.00173   0.00173   2.07558
    R7        2.07402  -0.00053   0.00000   0.00126   0.00126   2.07528
    R8        2.07515  -0.00055   0.00000   0.00117   0.00117   2.07631
    R9        2.07385  -0.00023   0.00000   0.00173   0.00173   2.07558
    A1        2.06279  -0.00620   0.00000  -0.02083  -0.02091   2.04188
    A2        2.11018   0.00310   0.00000   0.01048   0.01046   2.12065
    A3        2.11018   0.00310   0.00000   0.01045   0.01046   2.12065
    A4        1.93562   0.00368   0.00000   0.01875   0.01865   1.95426
    A5        1.93006   0.00262   0.00000   0.01312   0.01302   1.94308
    A6        1.90798   0.00143   0.00000   0.00524   0.00519   1.91317
    A7        1.89969  -0.00278   0.00000  -0.01320  -0.01333   1.88636
    A8        1.89423  -0.00237   0.00000  -0.01140  -0.01145   1.88278
    A9        1.89547  -0.00281   0.00000  -0.01369  -0.01373   1.88174
   A10        1.93006   0.00255   0.00000   0.01342   0.01302   1.94308
   A11        1.93562   0.00361   0.00000   0.01903   0.01865   1.95426
   A12        1.90798   0.00157   0.00000   0.00466   0.00519   1.91317
   A13        1.89969  -0.00304   0.00000  -0.01209  -0.01333   1.88636
   A14        1.89547  -0.00268   0.00000  -0.01425  -0.01373   1.88174
   A15        1.89423  -0.00224   0.00000  -0.01198  -0.01145   1.88278
    D1       -2.66592  -0.00108  -0.00001  -0.11948  -0.12014  -2.78605
    D2       -0.55673  -0.00038  -0.00001  -0.11486  -0.11541  -0.67214
    D3        0.46721   0.00036   0.00009  -0.10713  -0.10707   0.36014
    D4        0.55673   0.00075   0.00001   0.11611   0.11541   0.67214
    D5        2.66592   0.00103   0.00001   0.12252   0.12014   2.78605
    D6       -2.57640  -0.00068  -0.00009   0.10375   0.10235  -2.47405
         Item               Value     Threshold  Converged?
 Maximum Force            0.017749     0.000450     NO 
 RMS     Force            0.004379     0.000300     NO 
 Maximum Displacement     0.162339     0.001800     NO 
 RMS     Displacement     0.077260     0.001200     NO 
 Predicted change in Energy=-7.027658D-04
 GradGradGradGradGradGradGradGradGradGradGradGradGradGradGradGradGradGrad

                          Input orientation:                          
 ---------------------------------------------------------------------
 Center     Atomic     Atomic              Coordinates (Angstroms)
 Number     Number      Type              X           Y           Z
 ---------------------------------------------------------------------
    1          6             0        0.054265    0.035126   -0.016992
    2          6             0       -0.010053   -0.001645    1.488353
    3          1             0        0.985569   -0.112001    1.939772
    4          1             0       -0.467510    0.911908    1.891067
    5          1             0       -0.622709   -0.854418    1.810536
    6          6             0       -1.122904    0.640859   -0.737349
    7          1             0       -1.513061    1.515556   -0.200033
    8          1             0       -0.863097    0.955327   -1.757561
    9          1             0       -1.932082   -0.098451   -0.808210
   10          8             0        1.011794   -0.408946   -0.623949
 ---------------------------------------------------------------------
                    Distance matrix (angstroms):
                    1          2          3          4          5
     1  C    0.000000
     2  C    1.507167   0.000000
     3  H    2.172073   1.098736   0.000000
     4  H    2.163720   1.098192   1.778258   0.000000
     5  H    2.142298   1.098349   1.776076   1.774958   0.000000
     6  C    1.507167   2.570019   3.489905   2.722422   2.996292
     7  H    2.163720   2.722422   3.670267   2.414595   3.232938
     8  H    2.172073   3.489905   4.269313   3.670267   4.008027
     9  H    2.142298   2.996292   4.008027   3.232938   3.023866
    10  O    1.217562   2.381572   2.580994   3.202858   2.965933
                    6          7          8          9         10
     6  C    0.000000
     7  H    1.098192   0.000000
     8  H    1.098736   1.778258   0.000000
     9  H    1.098349   1.774958   1.776076   0.000000
    10  O    2.381572   3.202858   2.580994   2.965933   0.000000
 Stoichiometry    C3H6O
 Framework group  CS[SG(CO),X(C2H6)]
 Deg. of freedom    13
 Full point group                 CS      NOp   2
 Largest Abelian subgroup         CS      NOp   2
 Largest concise Abelian subgroup CS      NOp   2
                         Standard orientation:                         
 ---------------------------------------------------------------------
 Center     Atomic     Atomic              Coordinates (Angstroms)
 Number     Number      Type              X           Y           Z
 ---------------------------------------------------------------------
    1          6             0       -0.003026    0.177821    0.000000
    2          6             0       -0.003026   -0.609772    1.285010
    3          1             0       -0.357713   -0.010173    2.134656
    4          1             0       -0.639989   -1.500987    1.207297
    5          1             0        1.017945   -0.945173    1.511933
    6          6             0       -0.003026   -0.609772   -1.285010
    7          1             0       -0.639989   -1.500987   -1.207297
    8          1             0       -0.357713   -0.010173   -2.134656
    9          1             0        1.017945   -0.945173   -1.511933
   10          8             0        0.001748    1.395374    0.000000
 ---------------------------------------------------------------------
 Rotational constants (GHZ):     10.1987976      8.4890905      4.9189657
 Standard basis: VSTO-3G (5D, 7F)
 There are    13 symmetry adapted basis functions of A'  symmetry.
 There are     9 symmetry adapted basis functions of A"  symmetry.
 Integral buffers will be    262144 words long.
 Raffenetti 1 integral format.
 Two-electron integral symmetry is turned on.
    22 basis functions,    66 primitive gaussians,    22 cartesian basis functions
    12 alpha electrons       12 beta electrons
       nuclear repulsion energy        67.0203055235 Hartrees.
 NAtoms=   10 NActive=   10 NUniq=    6 SFac= 3.59D+00 NAtFMM=   60 Big=F
 Initial guess read from the read-write file:
 Initial guess orbital symmetries:
       Occupied  (A') (A') (A") (A') (A") (A') (A') (A") (A') (A")
                 (A') (A")
       Virtual   (A') (A') (A") (A') (A") (A') (A") (A') (A") (A')
 RHF-PM3 calculation of energy and first derivatives.
 MO and density RWFs will be updated without deorthogonalization.
 Closed-shell calculation:      12 occupied levels.
 NNHCO=    0.
 References:
  H: (PM3): J. J. P. STEWART, J. COMP. CHEM.     10, 209 (1989).
  C: (PM3): J. J. P. STEWART, J. COMP. CHEM.     10, 209 (1989).
  O: (PM3): J. J. P. STEWART, J. COMP. CHEM.     10, 209 (1989).
 Ext34=T Pulay=F Camp-King=F BShift= 0.00D+00
 It=  1 PL= 0.987D+00 DiagD=T ESCF=      1.449013 Diff=-0.289D+01 RMSDP= 0.315D+00.
 It=  2 PL= 0.440D-01 DiagD=T ESCF=     -2.031566 Diff=-0.348D+01 RMSDP= 0.751D-02.
 It=  3 PL= 0.147D-01 DiagD=F ESCF=     -2.271970 Diff=-0.240D+00 RMSDP= 0.384D-02.
 It=  4 PL= 0.298D-02 DiagD=F ESCF=     -2.313561 Diff=-0.416D-01 RMSDP= 0.412D-03.
 It=  5 PL= 0.132D-02 DiagD=F ESCF=     -2.300395 Diff= 0.132D-01 RMSDP= 0.189D-03.
 It=  6 PL= 0.615D-03 DiagD=F ESCF=     -2.300514 Diff=-0.119D-03 RMSDP= 0.181D-03.
 It=  7 PL= 0.402D-04 DiagD=F ESCF=     -2.300586 Diff=-0.719D-04 RMSDP= 0.822D-05.
 It=  8 PL= 0.205D-04 DiagD=F ESCF=     -2.300551 Diff= 0.342D-04 RMSDP= 0.365D-05.
 It=  9 PL= 0.108D-04 DiagD=F ESCF=     -2.300551 Diff=-0.440D-07 RMSDP= 0.382D-05.
 It= 10 PL= 0.167D-05 DiagD=F ESCF=     -2.300551 Diff=-0.312D-07 RMSDP= 0.211D-06.
 It= 11 PL= 0.627D-06 DiagD=F ESCF=     -2.300551 Diff= 0.163D-07 RMSDP= 0.825D-07.
 Energy=   -0.084545362339 NIter=  12.
 Dipole moment=       0.033911      -1.080707       0.000000
 ***** Axes restored to original set *****
 -------------------------------------------------------------------
 Center     Atomic                   Forces (Hartrees/Bohr)
 Number     Number              X              Y              Z
 -------------------------------------------------------------------
    1          6           0.001373799    0.000589404   -0.000516753
    2          6          -0.000983398    0.000270766   -0.002370748
    3          1          -0.001170419   -0.000089359    0.000525138
    4          1           0.000548478   -0.000650063    0.000083738
    5          1           0.000270048    0.000548406    0.000458247
    6          6           0.001222060   -0.001002556    0.002040168
    7          1           0.000139252   -0.000413797   -0.000734713
    8          1          -0.001144712   -0.000104201    0.000576552
    9          1          -0.000056172    0.000736749   -0.000194192
   10          8          -0.000198935    0.000114650    0.000132564
 -------------------------------------------------------------------
 Cartesian Forces:  Max     0.002370748 RMS     0.000853017

 GradGradGradGradGradGradGradGradGradGradGradGradGradGradGradGradGradGrad
 Berny optimization.
 Internal  Forces:  Max     0.003056128 RMS     0.000964670
 Search for a local minimum.
 Step number   5 out of a maximum of  40
 All quantities printed in internal units (Hartrees-Bohrs-Radians)
   2   1 -0.3346757E-03  0.1545700E-02  0.2165204    
 Update second derivatives using D2CorL and points  4  5
 Trust test= 1.24D+00 RLast= 2.84D-01 DXMaxT set to 3.00D-01
 RFO step:  Lambda= 9.64447747D-05.
 Quartic linear search produced a step of  0.38400.
 Iteration  1 RMS(Cart)=  0.13150469 RMS(Int)=  0.01280226
 Iteration  2 RMS(Cart)=  0.01851223 RMS(Int)=  0.00016778
 Iteration  3 RMS(Cart)=  0.00020274 RMS(Int)=  0.00005315
 Iteration  4 RMS(Cart)=  0.00000002 RMS(Int)=  0.00005315
 Variable       Old X    -DE/DX   Delta X   Delta X   Delta X     New X
                                 (Linear)    (Quad)   (Total)
    R1        2.84813  -0.00125   0.00612  -0.01169  -0.00557   2.84256
    R2        2.84813  -0.00125   0.00612  -0.01169  -0.00557   2.84256
    R3        2.30086  -0.00026   0.00501  -0.00452   0.00049   2.30135
    R4        2.07631  -0.00084   0.00045  -0.00254  -0.00210   2.07421
    R5        2.07528  -0.00074   0.00048  -0.00212  -0.00163   2.07365
    R6        2.07558  -0.00044   0.00066  -0.00093  -0.00026   2.07532
    R7        2.07528  -0.00074   0.00048  -0.00212  -0.00163   2.07365
    R8        2.07631  -0.00084   0.00045  -0.00254  -0.00210   2.07421
    R9        2.07558  -0.00044   0.00066  -0.00093  -0.00026   2.07532
    A1        2.04188  -0.00306  -0.00803  -0.01881  -0.02699   2.01489
    A2        2.12065   0.00153   0.00402   0.00939   0.01348   2.13413
    A3        2.12065   0.00153   0.00402   0.00942   0.01348   2.13413
    A4        1.95426   0.00132   0.00716   0.01127   0.01834   1.97260
    A5        1.94308  -0.00001   0.00500  -0.00137   0.00354   1.94662
    A6        1.91317   0.00060   0.00199   0.00573   0.00764   1.92081
    A7        1.88636  -0.00072  -0.00512  -0.00707  -0.01228   1.87408
    A8        1.88278  -0.00055  -0.00440  -0.00403  -0.00850   1.87429
    A9        1.88174  -0.00075  -0.00527  -0.00536  -0.01070   1.87104
   A10        1.94308   0.00000   0.00500  -0.00095   0.00354   1.94662
   A11        1.95426   0.00132   0.00716   0.01167   0.01834   1.97260
   A12        1.91317   0.00059   0.00199   0.00492   0.00764   1.92081
   A13        1.88636  -0.00071  -0.00512  -0.00564  -0.01228   1.87408
   A14        1.88174  -0.00076  -0.00527  -0.00611  -0.01070   1.87104
   A15        1.88278  -0.00055  -0.00440  -0.00479  -0.00850   1.87429
    D1       -2.78605  -0.00047  -0.04613  -0.17715  -0.22348  -3.00954
    D2       -0.67214  -0.00047  -0.04432  -0.17932  -0.22382  -0.89597
    D3        0.36014  -0.00002  -0.04112  -0.17801  -0.21913   0.14100
    D4        0.67214   0.00047   0.04432   0.17657   0.22382   0.89597
    D5        2.78605   0.00048   0.04613   0.17682   0.22348   3.00954
    D6       -2.47405   0.00002   0.03930   0.17743   0.21948  -2.25457
         Item               Value     Threshold  Converged?
 Maximum Force            0.003056     0.000450     NO 
 RMS     Force            0.000965     0.000300     NO 
 Maximum Displacement     0.363373     0.001800     NO 
 RMS     Displacement     0.145750     0.001200     NO 
 Predicted change in Energy=-3.618486D-04
 GradGradGradGradGradGradGradGradGradGradGradGradGradGradGradGradGradGrad

                          Input orientation:                          
 ---------------------------------------------------------------------
 Center     Atomic     Atomic              Coordinates (Angstroms)
 Number     Number      Type              X           Y           Z
 ---------------------------------------------------------------------
    1          6             0        0.100717    0.098645   -0.021882
    2          6             0       -0.018981   -0.016997    1.473100
    3          1             0        0.930327   -0.272557    1.961249
    4          1             0       -0.377014    0.918104    1.922021
    5          1             0       -0.743232   -0.800421    1.733430
    6          6             0       -1.120368    0.618889   -0.729674
    7          1             0       -1.478374    1.553974   -0.280700
    8          1             0       -0.948493    0.812180   -1.796390
    9          1             0       -1.937889   -0.110685   -0.655883
   10          8             0        1.113898   -0.216657   -0.619492
 ---------------------------------------------------------------------
                    Distance matrix (angstroms):
                    1          2          3          4          5
     1  C    0.000000
     2  C    1.504218   0.000000
     3  H    2.181479   1.097627   0.000000
     4  H    2.162984   1.097329   1.768714   0.000000
     5  H    2.145155   1.098210   1.769559   1.767204   0.000000
     6  C    1.504218   2.543544   3.498727   2.770125   2.867674
     7  H    2.162984   2.770125   3.763561   2.543483   3.184388
     8  H    2.181479   3.498727   4.338947   3.763561   3.886160
     9  H    2.145155   2.867674   3.886160   3.184388   2.758941
    10  O    1.217821   2.387932   2.587865   3.157497   3.053843
                    6          7          8          9         10
     6  C    0.000000
     7  H    1.097329   0.000000
     8  H    1.097627   1.768714   0.000000
     9  H    1.098210   1.767204   1.769559   0.000000
    10  O    2.387932   3.157497   2.587865   3.053843   0.000000
 Stoichiometry    C3H6O
 Framework group  CS[SG(CO),X(C2H6)]
 Deg. of freedom    13
 Full point group                 CS      NOp   2
 Largest Abelian subgroup         CS      NOp   2
 Largest concise Abelian subgroup CS      NOp   2
                         Standard orientation:                         
 ---------------------------------------------------------------------
 Center     Atomic     Atomic              Coordinates (Angstroms)
 Number     Number      Type              X           Y           Z
 ---------------------------------------------------------------------
    1          6             0       -0.003751    0.189371    0.000000
    2          6             0       -0.003751   -0.613914    1.271772
    3          1             0       -0.136768    0.003519    2.169474
    4          1             0       -0.800758   -1.368175    1.271742
    5          1             0        0.949439   -1.148605    1.379470
    6          6             0       -0.003751   -0.613914   -1.271772
    7          1             0       -0.800758   -1.368175   -1.271742
    8          1             0       -0.136768    0.003519   -2.169474
    9          1             0        0.949439   -1.148605   -1.379470
   10          8             0        0.005462    1.407158    0.000000
 ---------------------------------------------------------------------
 Rotational constants (GHZ):     10.0472352      8.6319344      4.9279714
 Standard basis: VSTO-3G (5D, 7F)
 There are    13 symmetry adapted basis functions of A'  symmetry.
 There are     9 symmetry adapted basis functions of A"  symmetry.
 Integral buffers will be    262144 words long.
 Raffenetti 1 integral format.
 Two-electron integral symmetry is turned on.
    22 basis functions,    66 primitive gaussians,    22 cartesian basis functions
    12 alpha electrons       12 beta electrons
       nuclear repulsion energy        67.0547492790 Hartrees.
 NAtoms=   10 NActive=   10 NUniq=    6 SFac= 3.59D+00 NAtFMM=   60 Big=F
 Initial guess read from the read-write file:
 Initial guess orbital symmetries:
       Occupied  (A') (A') (A") (A') (A") (A') (A') (A") (A') (A")
                 (A') (A")
       Virtual   (A') (A') (A") (A') (A") (A') (A") (A') (A") (A')
 RHF-PM3 calculation of energy and first derivatives.
 MO and density RWFs will be updated without deorthogonalization.
 Closed-shell calculation:      12 occupied levels.
 NNHCO=    0.
 References:
  H: (PM3): J. J. P. STEWART, J. COMP. CHEM.     10, 209 (1989).
  C: (PM3): J. J. P. STEWART, J. COMP. CHEM.     10, 209 (1989).
  O: (PM3): J. J. P. STEWART, J. COMP. CHEM.     10, 209 (1989).
 Ext34=T Pulay=F Camp-King=F BShift= 0.00D+00
 It=  1 PL= 0.986D+00 DiagD=T ESCF=      1.566281 Diff=-0.277D+01 RMSDP= 0.315D+00.
 It=  2 PL= 0.435D-01 DiagD=T ESCF=     -2.005021 Diff=-0.357D+01 RMSDP= 0.811D-02.
 It=  3 PL= 0.146D-01 DiagD=F ESCF=     -2.273790 Diff=-0.269D+00 RMSDP= 0.446D-02.
 It=  4 PL= 0.297D-02 DiagD=F ESCF=     -2.327699 Diff=-0.539D-01 RMSDP= 0.527D-03.
 It=  5 PL= 0.132D-02 DiagD=F ESCF=     -2.311264 Diff= 0.164D-01 RMSDP= 0.246D-03.
 It=  6 PL= 0.619D-03 DiagD=F ESCF=     -2.311460 Diff=-0.195D-03 RMSDP= 0.233D-03.
 It=  7 PL= 0.367D-04 DiagD=F ESCF=     -2.311576 Diff=-0.116D-03 RMSDP= 0.819D-05.
 It=  8 PL= 0.189D-04 DiagD=F ESCF=     -2.311520 Diff= 0.557D-04 RMSDP= 0.363D-05.
 It=  9 PL= 0.988D-05 DiagD=F ESCF=     -2.311520 Diff=-0.430D-07 RMSDP= 0.373D-05.
 It= 10 PL= 0.153D-05 DiagD=F ESCF=     -2.311520 Diff=-0.295D-07 RMSDP= 0.190D-06.
 It= 11 PL= 0.548D-06 DiagD=F ESCF=     -2.311520 Diff= 0.152D-07 RMSDP= 0.677D-07.
 Energy=   -0.084948465650 NIter=  12.
 Dipole moment=       0.013778      -1.096299       0.000000
 ***** Axes restored to original set *****
 -------------------------------------------------------------------
 Center     Atomic                   Forces (Hartrees/Bohr)
 Number     Number              X              Y              Z
 -------------------------------------------------------------------
    1          6           0.001861248    0.000416310   -0.000810446
    2          6          -0.000069615   -0.001196420    0.001429866
    3          1           0.000505219   -0.000177848   -0.000395415
    4          1          -0.000054082    0.000895141   -0.000914709
    5          1          -0.000165971   -0.000209069   -0.000283164
    6          6          -0.001374942   -0.000442789   -0.001180787
    7          1           0.000846034    0.000375459    0.000885524
    8          1           0.000573818   -0.000217454   -0.000258217
    9          1           0.000063377   -0.000341483    0.000175531
   10          8          -0.002185086    0.000898153    0.001351818
 -------------------------------------------------------------------
 Cartesian Forces:  Max     0.002185086 RMS     0.000878175

 GradGradGradGradGradGradGradGradGradGradGradGradGradGradGradGradGradGrad
 Berny optimization.
 Internal  Forces:  Max     0.002713811 RMS     0.000768059
 Search for a local minimum.
 Step number   6 out of a maximum of  40
 All quantities printed in internal units (Hartrees-Bohrs-Radians)
   2   1 -0.4206283E-04  0.2380012E-02  0.1767337E-01
 Update second derivatives using D2CorL and points  5  6
 Trust test= 1.11D+00 RLast= 5.47D-01 DXMaxT set to 4.24D-01
 RFO step:  Lambda= 2.20225258D-05.
 Quartic linear search produced a step of  0.13043.
 Iteration  1 RMS(Cart)=  0.06704851 RMS(Int)=  0.00186947
 Iteration  2 RMS(Cart)=  0.00252335 RMS(Int)=  0.00000890
 Iteration  3 RMS(Cart)=  0.00000331 RMS(Int)=  0.00000859
 Iteration  4 RMS(Cart)=  0.00000000 RMS(Int)=  0.00000859
 Variable       Old X    -DE/DX   Delta X   Delta X   Delta X     New X
                                 (Linear)    (Quad)   (Total)
    R1        2.84256  -0.00013  -0.00073   0.00184   0.00111   2.84367
    R2        2.84256  -0.00013  -0.00073   0.00184   0.00111   2.84367
    R3        2.30135  -0.00271   0.00006  -0.00186  -0.00180   2.29955
    R4        2.07421   0.00030  -0.00027   0.00069   0.00041   2.07463
    R5        2.07365   0.00041  -0.00021   0.00103   0.00082   2.07447
    R6        2.07532   0.00019  -0.00003   0.00045   0.00042   2.07573
    R7        2.07365   0.00041  -0.00021   0.00103   0.00082   2.07447
    R8        2.07421   0.00030  -0.00027   0.00069   0.00041   2.07463
    R9        2.07532   0.00019  -0.00003   0.00045   0.00042   2.07573
    A1        2.01489   0.00047  -0.00352  -0.00031  -0.00390   2.01099
    A2        2.13413  -0.00023   0.00176   0.00017   0.00196   2.13609
    A3        2.13413  -0.00023   0.00176   0.00016   0.00196   2.13609
    A4        1.97260  -0.00040   0.00239  -0.00107   0.00131   1.97391
    A5        1.94662  -0.00167   0.00046  -0.01119  -0.01074   1.93588
    A6        1.92081   0.00002   0.00100   0.00194   0.00293   1.92374
    A7        1.87408   0.00085  -0.00160   0.00305   0.00144   1.87552
    A8        1.87429   0.00066  -0.00111   0.00401   0.00289   1.87717
    A9        1.87104   0.00069  -0.00140   0.00406   0.00266   1.87369
   A10        1.94662  -0.00164   0.00046  -0.01100  -0.01074   1.93588
   A11        1.97260  -0.00037   0.00239  -0.00090   0.00131   1.97391
   A12        1.92081  -0.00003   0.00100   0.00158   0.00293   1.92374
   A13        1.87408   0.00095  -0.00160   0.00369   0.00144   1.87552
   A14        1.87104   0.00064  -0.00140   0.00373   0.00266   1.87369
   A15        1.87429   0.00061  -0.00111   0.00367   0.00289   1.87717
    D1       -3.00954   0.00004  -0.02915  -0.07269  -0.10185  -3.11138
    D2       -0.89597  -0.00037  -0.02919  -0.07769  -0.10689  -1.00286
    D3        0.14100  -0.00010  -0.02858  -0.07645  -0.10503   0.03598
    D4        0.89597   0.00017   0.02919   0.07594   0.10689   1.00286
    D5        3.00954  -0.00006   0.02915   0.07203   0.10185   3.11138
    D6       -2.25457   0.00031   0.02863   0.07970   0.11007  -2.14450
         Item               Value     Threshold  Converged?
 Maximum Force            0.002714     0.000450     NO 
 RMS     Force            0.000768     0.000300     NO 
 Maximum Displacement     0.186614     0.001800     NO 
 RMS     Displacement     0.067376     0.001200     NO 
 Predicted change in Energy=-7.470927D-05
 GradGradGradGradGradGradGradGradGradGradGradGradGradGradGradGradGradGrad

                          Input orientation:                          
 ---------------------------------------------------------------------
 Center     Atomic     Atomic              Coordinates (Angstroms)
 Number     Number      Type              X           Y           Z
 ---------------------------------------------------------------------
    1          6             0        0.113875    0.129852   -0.019452
    2          6             0       -0.022966   -0.027421    1.470844
    3          1             0        0.907456   -0.348314    1.957271
    4          1             0       -0.330049    0.917279    1.938092
    5          1             0       -0.793700   -0.774320    1.704638
    6          6             0       -1.123424    0.607928   -0.730072
    7          1             0       -1.461253    1.570380   -0.324316
    8          1             0       -0.976206    0.739219   -1.810051
    9          1             0       -1.942186   -0.111242   -0.592334
   10          8             0        1.149333   -0.117905   -0.608703
 ---------------------------------------------------------------------
                    Distance matrix (angstroms):
                    1          2          3          4          5
     1  C    0.000000
     2  C    1.504807   0.000000
     3  H    2.183082   1.097846   0.000000
     4  H    2.156175   1.097761   1.770172   0.000000
     5  H    2.147954   1.098430   1.771789   1.769458   0.000000
     6  C    1.504807   2.541399   3.501525   2.800757   2.819067
     7  H    2.156175   2.800757   3.807598   2.612404   3.171734
     8  H    2.183082   3.501525   4.350129   3.807598   3.831076
     9  H    2.147954   2.819067   3.831076   3.171734   2.652314
    10  O    1.216870   2.388930   2.587627   3.121913   3.091569
                    6          7          8          9         10
     6  C    0.000000
     7  H    1.097761   0.000000
     8  H    1.097846   1.770172   0.000000
     9  H    1.098430   1.769458   1.771789   0.000000
    10  O    2.388930   3.121913   2.587627   3.091569   0.000000
 Stoichiometry    C3H6O
 Framework group  CS[SG(CO),X(C2H6)]
 Deg. of freedom    13
 Full point group                 CS      NOp   2
 Largest Abelian subgroup         CS      NOp   2
 Largest concise Abelian subgroup CS      NOp   2
                         Standard orientation:                         
 ---------------------------------------------------------------------
 Center     Atomic     Atomic              Coordinates (Angstroms)
 Number     Number      Type              X           Y           Z
 ---------------------------------------------------------------------
    1          6             0       -0.002053    0.191421    0.000000
    2          6             0       -0.002053   -0.614660    1.270699
    3          1             0       -0.032554    0.006999    2.175065
    4          1             0       -0.866487   -1.290362    1.306202
    5          1             0        0.902024   -1.236044    1.326157
    6          6             0       -0.002053   -0.614660   -1.270699
    7          1             0       -0.866487   -1.290362   -1.306202
    8          1             0       -0.032554    0.006999   -2.175065
    9          1             0        0.902024   -1.236044   -1.326157
   10          8             0        0.003873    1.408277    0.000000
 ---------------------------------------------------------------------
 Rotational constants (GHZ):     10.0291221      8.6496585      4.9301609
 Standard basis: VSTO-3G (5D, 7F)
 There are    13 symmetry adapted basis functions of A'  symmetry.
 There are     9 symmetry adapted basis functions of A"  symmetry.
 Integral buffers will be    262144 words long.
[...]
 Atom  6 has atomic number  6 and mass  12.00000
 Atom  7 has atomic number  1 and mass   1.00783
 Atom  8 has atomic number  1 and mass   1.00783
 Atom  9 has atomic number  1 and mass   1.00783
 Atom 10 has atomic number  8 and mass  15.99491
 Molecular mass:    58.04186 amu.
 Principal axes and moments of inertia in atomic units:
                           1         2         3
     EIGENVALUES --   179.43209 208.94847 365.77989
           X            0.00000   0.00003   1.00000
           Y            0.00000   1.00000  -0.00003
           Z            1.00000   0.00000   0.00000
 This molecule is an asymmetric top.
 Rotational symmetry number  1.
 Rotational temperatures (Kelvin)      0.48271     0.41452     0.23679
 Rotational constants (GHZ):          10.05807     8.63725     4.93395
 Zero-point vibrational energy     219928.2 (Joules/Mol)
                                   52.56410 (Kcal/Mol)
 Warning -- explicit consideration of   5 degrees of freedom as
           vibrations may cause significant error
 Vibrational temperatures:     79.34   138.84   560.08   750.12   773.06
          (Kelvin)           1278.49  1335.73  1355.27  1486.02  1524.67
                             1833.31  1975.79  1991.97  2002.57  2008.75
                             2012.71  2030.07  2847.73  4435.46  4436.30
                             4445.52  4447.56  4576.35  4576.78
 
 Zero-point correction=                           0.083766 (Hartree/Particle)
 Thermal correction to Energy=                    0.089163
 Thermal correction to Enthalpy=                  0.090107
 Thermal correction to Gibbs Free Energy=         0.055306
 Sum of electronic and zero-point Energies=             -0.001299
 Sum of electronic and thermal Energies=                 0.004098
 Sum of electronic and thermal Enthalpies=               0.005042
 Sum of electronic and thermal Free Energies=           -0.029759
 
                     E (Thermal)             CV                S
                      KCal/Mol        Cal/Mol-Kelvin    Cal/Mol-Kelvin
 Total                   55.950             16.661             73.244
 Electronic               0.000              0.000              0.000
 Translational            0.889              2.981             38.096
 Rotational               0.889              2.981             24.132
 Vibrational             54.173             10.699             11.016
 Vibration  1             0.596              1.976              4.624
 Vibration  2             0.603              1.952              3.524
 Vibration  3             0.757              1.493              1.003
 Vibration  4             0.876              1.203              0.607
 Vibration  5             0.892              1.168              0.571
                       Q            Log10(Q)             Ln(Q)
 Total Bot       0.363940D-25        -25.438970        -58.575392
 Total V=0       0.123236D+14         13.090738         30.142538
 Vib (Bot)       0.499502D-37        -37.301463        -85.889792
 Vib (Bot)  1    0.374694D+01          0.573676          1.320938
 Vib (Bot)  2    0.212808D+01          0.327988          0.755220
 Vib (Bot)  3    0.461427D+00         -0.335897         -0.773432
 Vib (Bot)  4    0.309216D+00         -0.509738         -1.173715
 Vib (Bot)  5    0.295621D+00         -0.529265         -1.218679
 Vib (V=0)       0.169139D+02          1.228245          2.828138
 Vib (V=0)  1    0.428015D+01          0.631459          1.453988
 Vib (V=0)  2    0.268603D+01          0.429111          0.988064
 Vib (V=0)  3    0.118038D+01          0.072021          0.165835
 Vib (V=0)  4    0.108789D+01          0.036585          0.084240
 Vib (V=0)  5    0.108085D+01          0.033767          0.077752
 Electronic      0.100000D+01          0.000000          0.000000
 Translational   0.173807D+08          7.240067         16.670871
 Rotational      0.419205D+05          4.622426         10.643529
 ***** Axes restored to original set *****
 -------------------------------------------------------------------
 Center     Atomic                   Forces (Hartrees/Bohr)
 Number     Number              X              Y              Z
 -------------------------------------------------------------------
    1          6          -0.000032201    0.000011765    0.000019497
    2          6           0.000026107    0.000018360   -0.000018351
    3          1           0.000003409   -0.000007470    0.000003833
    4          1          -0.000001784   -0.000005447    0.000003798
    5          1          -0.000010807   -0.000015090    0.000020759
    6          6           0.000034056    0.000013771   -0.000002455
    7          1          -0.000005143   -0.000003508   -0.000002920
    8          1          -0.000002362   -0.000004139   -0.000007708
    9          1          -0.000025591   -0.000006555   -0.000008809
   10          8           0.000014316   -0.000001686   -0.000007644
 -------------------------------------------------------------------
 Cartesian Forces:  Max     0.000034056 RMS     0.000014540

 GradGradGradGradGradGradGradGradGradGradGradGradGradGradGradGradGradGrad
 Berny optimization.
 Internal  Forces:  Max     0.000050542 RMS     0.000015397
 Search for a local minimum.
 Step number   1 out of a maximum of   2
 All quantities printed in internal units (Hartrees-Bohrs-Radians)
 Second derivative matrix not updated -- analytic derivatives used.
     Eigenvalues ---    0.00043   0.00129   0.04914   0.06804   0.09664
     Eigenvalues ---    0.10882   0.11179   0.11231   0.11615   0.11717
     Eigenvalues ---    0.12186   0.14153   0.14852   0.17947   0.18672
     Eigenvalues ---    0.33314   0.33359   0.33743   0.33816   0.36647
     Eigenvalues ---    0.37052   0.39702   0.40652   1.041611000.00000
     Eigenvalues --- 1000.000001000.000001000.000001000.000001000.00000
 Angle between quadratic step and forces=  24.28 degrees.
 Linear search not attempted -- first point.
 Iteration  1 RMS(Cart)=  0.00026477 RMS(Int)=  0.00000003
 Iteration  2 RMS(Cart)=  0.00000003 RMS(Int)=  0.00000000
 Variable       Old X    -DE/DX   Delta X   Delta X   Delta X     New X
                                 (Linear)    (Quad)   (Total)
    R1        2.84380   0.00001   0.00000  -0.00001  -0.00001   2.84379
    R2        2.84380   0.00001   0.00000  -0.00001  -0.00001   2.84379
    R3        2.29867   0.00002   0.00000   0.00004   0.00004   2.29871
    R4        2.07428   0.00001   0.00000   0.00003   0.00003   2.07431
    R5        2.07455   0.00000   0.00000  -0.00001  -0.00001   2.07454
    R6        2.07447   0.00002   0.00000   0.00007   0.00007   2.07454
    R7        2.07455   0.00000   0.00000  -0.00001  -0.00001   2.07454
    R8        2.07428   0.00001   0.00000   0.00003   0.00003   2.07431
    R9        2.07447   0.00002   0.00000   0.00007   0.00007   2.07454
    A1        2.01492   0.00005   0.00000   0.00028   0.00028   2.01520
    A2        2.13413  -0.00003   0.00000  -0.00014  -0.00014   2.13399
    A3        2.13413  -0.00003   0.00000  -0.00014  -0.00014   2.13399
    A4        1.96968  -0.00001   0.00000  -0.00004  -0.00004   1.96965
    A5        1.92623   0.00001   0.00000   0.00006   0.00006   1.92629
    A6        1.92611   0.00002   0.00000   0.00018   0.00018   1.92629
    A7        1.88011   0.00000   0.00000   0.00001   0.00001   1.88012
    A8        1.88025  -0.00002   0.00000  -0.00014  -0.00014   1.88012
    A9        1.87832  -0.00001   0.00000  -0.00009  -0.00009   1.87823
   A10        1.92623   0.00001   0.00000   0.00006   0.00006   1.92629
   A11        1.96968  -0.00001   0.00000  -0.00004  -0.00004   1.96965
   A12        1.92611   0.00002   0.00000   0.00018   0.00018   1.92629
   A13        1.88011   0.00000   0.00000   0.00001   0.00001   1.88012
   A14        1.87832  -0.00001   0.00000  -0.00009  -0.00009   1.87823
   A15        1.88025  -0.00002   0.00000  -0.00014  -0.00014   1.88012
    D1       -3.14156   0.00000   0.00000  -0.00003  -0.00003  -3.14159
    D2       -1.03696   0.00000   0.00000   0.00000   0.00000  -1.03696
    D3        0.00009   0.00000   0.00000  -0.00008  -0.00008   0.00000
    D4        1.03696   0.00000   0.00000   0.00000   0.00000   1.03696
    D5        3.14156   0.00000   0.00000   0.00003   0.00003   3.14159
    D6       -2.10469   0.00000   0.00000   0.00005   0.00006  -2.10463
         Item               Value     Threshold  Converged?
 Maximum Force            0.000051     0.000450     YES
 RMS     Force            0.000015     0.000300     YES
 Maximum Displacement     0.000687     0.001800     YES
 RMS     Displacement     0.000265     0.001200     YES
 Predicted change in Energy=-2.006449D-08
 Optimization completed.
    -- Stationary point found.
                           ----------------------------
                           !   Optimized Parameters   !
                           ! (Angstroms and Degrees)  !
 --------------------------                            --------------------------
 ! Name  Definition              Value          Derivative Info.                !
 --------------------------------------------------------------------------------
 ! R1    R(1,2)                  1.5049         -DE/DX =    0.0                 !
 ! R2    R(1,6)                  1.5049         -DE/DX =    0.0                 !
 ! R3    R(1,10)                 1.2164         -DE/DX =    0.0                 !
 ! R4    R(2,3)                  1.0977         -DE/DX =    0.0                 !
 ! R5    R(2,4)                  1.0978         -DE/DX =    0.0                 !
 ! R6    R(2,5)                  1.0978         -DE/DX =    0.0                 !
 ! R7    R(6,7)                  1.0978         -DE/DX =    0.0                 !
 ! R8    R(6,8)                  1.0977         -DE/DX =    0.0                 !
 ! R9    R(6,9)                  1.0978         -DE/DX =    0.0                 !
 ! A1    A(2,1,6)              115.4465         -DE/DX =    0.0001              !
 ! A2    A(2,1,10)             122.2768         -DE/DX =    0.0                 !
 ! A3    A(6,1,10)             122.2768         -DE/DX =    0.0                 !
 ! A4    A(1,2,3)              112.8546         -DE/DX =    0.0                 !
 ! A5    A(1,2,4)              110.365          -DE/DX =    0.0                 !
 ! A6    A(1,2,5)              110.3578         -DE/DX =    0.0                 !
 ! A7    A(3,2,4)              107.7221         -DE/DX =    0.0                 !
 ! A8    A(3,2,5)              107.7304         -DE/DX =    0.0                 !
 ! A9    A(4,2,5)              107.62           -DE/DX =    0.0                 !
 ! A10   A(1,6,7)              110.365          -DE/DX =    0.0                 !
 ! A11   A(1,6,8)              112.8546         -DE/DX =    0.0                 !
 ! A12   A(1,6,9)              110.3578         -DE/DX =    0.0                 !
 ! A13   A(7,6,8)              107.7221         -DE/DX =    0.0                 !
 ! A14   A(7,6,9)              107.62           -DE/DX =    0.0                 !
 ! A15   A(8,6,9)              107.7304         -DE/DX =    0.0                 !
 ! D1    D(6,1,2,3)           -179.998          -DE/DX =    0.0                 !
 ! D2    D(6,1,2,4)            -59.4132         -DE/DX =    0.0                 !
 ! D3    D(10,1,2,3)             0.0049         -DE/DX =    0.0                 !
 ! D4    D(2,1,6,7)             59.4132         -DE/DX =    0.0                 !
 ! D5    D(2,1,6,8)            179.998          -DE/DX =    0.0                 !
 ! D6    D(10,1,6,7)          -120.5897         -DE/DX =    0.0                 !
 --------------------------------------------------------------------------------
 GradGradGradGradGradGradGradGradGradGradGradGradGradGradGradGradGradGrad

 1|1|UNPC-UNK|Freq|RPM3|ZDO|C3H6O1|PCUSER|07-Jun-2021|0||#N GEOM=ALLCHE
 CK GUESS=READ SCRF=CHECK GENCHK RPM3/ZDO FREQ||Opt_Freq_of_acetone_at_
 pm3||0,1|C,0.1625239568,-0.0345552547,-0.0912372204|C,0.024467194,-0.2
 061041228,1.3974411164|H,0.9524681457,-0.545646241,1.8753378584|H,-0.2
 647716357,0.7434991357,1.866237429|H,-0.7578287884,-0.9414706911,1.626
 199102|C,-1.0774116875,0.4300659459,-0.8063166654|H,-1.4041880567,1.40
 13415129,-0.4125954325|H,-0.9293466672,0.5408200475,-1.8882917996|H,-1
 .897126699,-0.283696736,-0.6523967385|O,1.2054146152,-0.2564108048,-0.
 6767267254||Version=IA32W-G03RevC.01|State=1-A'|HF=-0.0850648|RMSD=0.0
 00e+000|RMSF=1.454e-005|Dipole=-0.9379767,0.1995316,0.5265882|DipoleDe
 riv=1.1745789,-0.2489681,-0.1690713,-0.2489553,0.3236662,-0.0650418,-0
 .1690678,-0.0650345,1.0459374,-0.2340465,0.0355572,-0.0296843,0.022528
 4,-0.1388557,0.0375312,0.061847,0.0107266,-0.3294802,0.0654587,-0.0078
 158,0.0332367,-0.0009692,0.0559284,-0.0051659,-0.0148355,0.008897,0.02
 29242,0.0527673,0.01728,-0.005773,0.0009918,0.0476472,0.02454,0.001607
 6,0.0012308,0.0370231,0.0443729,-0.0092782,-0.0204572,0.0027558,0.0609
 922,-0.0108021,0.0020484,0.0037671,0.0320655,-0.2983183,0.0479306,0.01
 56201,0.0609469,-0.1467565,0.013997,-0.0759147,0.0407955,-0.2573076,0.
 0439115,0.0133091,-0.0022166,-0.009121,0.0587304,-0.0079647,-0.0207742
 ,-0.0040147,0.0347957,0.0306661,0.0127693,-0.0398633,0.0059239,0.05166
 14,0.0106497,0.0082092,-0.0034127,0.0619837,0.0471179,-0.0071533,0.001
 4754,0.0195357,0.0491625,0.0132647,-0.0098518,0.0180571,0.0411502,-0.9
 262969,0.1463131,0.2166626,0.1463157,-0.3621797,-0.0110172,0.2166643,-
 0.0110152,-0.6889554|PG=CS [SG(C1O1),X(C2H6)]|NImag=0||0.95260603,-0.1
 8057207,0.26006754,-0.26069631,0.01078507,0.66892821,-0.07446382,-0.00
 247387,0.00086893,0.54584465,-0.00245023,-0.08504253,0.02291908,-0.011
 73209,0.51150281,0.00070833,0.02296362,-0.24524608,0.00368682,-0.00489
 609,0.53421573,0.00706564,-0.00048012,-0.00338437,-0.23072745,0.068840
 81,-0.09442879,0.26529015,0.00255286,0.00248977,0.00381100,0.06843961,
 -0.06627056,0.03417397,-0.08060680,0.07137567,-0.02467894,0.01004223,-
 0.01603378,-0.09160417,0.03334651,-0.08734886,0.10751512,-0.03983357,0
 .10096197,0.00233667,0.00193698,0.00404215,-0.05708919,0.06071621,0.02
 788881,-0.01161317,0.02633577,0.00644085,0.06194643,0.00100545,0.00535
 027,-0.00453621,0.06008353,-0.23566531,-0.09460991,0.01223066,-0.01389
 230,-0.00238913,-0.07009148,0.27425366,0.00711983,-0.02212097,-0.01289
 641,0.02747545,-0.09664529,-0.08435698,-0.00211504,0.00663525,0.005245
 92,-0.03160059,0.10859905,0.09296057,0.00000516,-0.00261085,0.00634927
 ,-0.17247487,-0.12538962,0.03604039,-0.02949911,-0.01662444,-0.0001989
 1,0.00487115,-0.00195875,-0.00146721,0.19699014,-0.00383160,0.00052671
 ,0.00487400,-0.12482814,-0.15624360,0.03511173,-0.00015154,0.00599019,
 -0.00134768,-0.01894721,-0.02912742,0.00021807,0.14677411,0.17943509,0
 .01838149,0.01803735,-0.00573814,0.03694929,0.03700385,-0.04845086,-0.
 00826033,-0.00551031,0.00326127,-0.00637282,-0.00828050,0.00359370,-0.
 04001846,-0.03919207,0.05277951,-0.17988094,0.03919042,-0.07511845,0.0
 0183537,0.00514194,-0.00865961,-0.00015597,0.00009778,0.00087086,-0.00
 023013,-0.00001644,-0.00041111,-0.00018942,0.00018852,-0.00098910,0.53
 265218,0.03916559,-0.09798515,0.02829811,0.00709236,0.01199638,0.00784
 422,0.00009263,0.00054590,0.00020353,0.00005573,-0.00041522,0.00133502
 ,0.00004833,-0.00021630,-0.00070747,-0.00654199,0.50990729,-0.07495824
 ,0.02825302,-0.12688612,-0.02235531,0.01185061,-0.02211485,0.00090802,
 0.00019296,-0.00261831,-0.00051287,0.00004786,-0.00090071,-0.00040780,
 0.00043957,-0.00114024,-0.00580865,-0.00426703,0.54900373,-0.00659601,
 0.02065377,0.00534779,-0.00040213,-0.00073124,-0.00076079,-0.00003339,
 -0.00003432,0.00005971,-0.00012357,0.00009655,-0.00055477,0.00001254,0
 .00004878,0.00021217,-0.05934791,0.06868602,0.02807651,0.06473170,0.00
 833221,-0.00670842,-0.00095127,0.00024211,-0.00005280,0.00050948,0.000
 00443,0.00000509,-0.00003344,0.00020029,-0.00004262,0.00039794,0.00002
 279,-0.00005624,0.00004913,0.06666416,-0.24331312,-0.08416515,-0.07597
 665,0.28012085,-0.00155568,0.01000687,0.00809504,-0.00060240,-0.000327
 10,-0.00109113,0.00001709,-0.00002412,0.00002838,-0.00021144,-0.000007
 78,-0.00072760,-0.00004939,0.00009004,0.00007776,0.02772357,-0.0834570
 5,-0.07445046,-0.03097844,0.09968565,0.08430811,0.00504339,0.00335049,
 -0.02613389,-0.00238060,0.00097673,-0.00072927,0.00018807,0.00001863,-
 0.00045867,-0.00002754,0.00000265,0.00007525,-0.00002780,-0.00001073,0
 .00005390,-0.04755278,-0.00391364,0.04015480,0.00026470,0.00258787,0.0
 0948364,0.05409186,0.00031960,0.00224162,0.01014380,0.00097113,0.00027
 277,0.00031618,-0.00005076,0.00002162,0.00015272,-0.00000525,-0.000012
 62,0.00000718,0.00001033,-0.00000146,-0.00005772,-0.00351174,-0.043782
 85,0.02408129,0.00657695,-0.00087656,-0.02586351,0.00281634,0.04544636
 ,-0.00483872,0.00391363,-0.01376338,-0.00069224,0.00030539,-0.00012055
 ,0.00002896,0.00000998,-0.00010145,0.00001917,-0.00000682,0.00004024,0
 .00001798,-0.00001679,0.00002934,0.03733038,0.02490910,-0.29301123,0.0
 0615110,-0.00779204,-0.01964768,-0.04440127,-0.02914910,0.33808957,-0.
 01938570,-0.01228989,-0.00021920,0.00000483,0.00089469,-0.00062337,-0.
 00001608,0.00002400,0.00007369,-0.00004321,-0.00009108,0.00012533,-0.0
 0017312,0.00017934,-0.00061475,-0.18173313,-0.12886500,0.02806873,0.00
 471417,-0.00189301,-0.00158051,-0.00659903,-0.00823736,0.00848889,0.20
 501598,0.00218235,0.00910641,-0.00169651,-0.00014720,-0.00057587,0.000
 11689,-0.00000167,-0.00001849,-0.00001731,0.00000449,0.00005366,-0.000
 16380,-0.00003981,-0.00000706,0.00016045,-0.12677160,-0.15002895,0.025
 13672,-0.01888536,-0.02914876,0.00022593,-0.00661358,-0.00275459,0.007
 15506,0.14836863,0.17491862,-0.00842609,-0.00823406,0.00507297,-0.0003
 0236,0.00081308,-0.00097492,0.00002428,0.00000025,0.00003464,-0.000101
 13,-0.00006210,0.00002362,-0.00014892,0.00032982,-0.00071539,0.0279262
 3,0.02457205,-0.04540725,-0.00648432,-0.00826591,0.00377202,0.02177437
 ,0.02036603,-0.01089403,-0.03286996,-0.03086276,0.04927015,-0.68673328
 ,0.13329466,0.34894526,-0.01014938,0.00373383,0.03687745,-0.00049828,-
 0.00020276,0.00198070,-0.00002629,-0.00126062,0.00135288,0.00048606,0.
 00057780,0.00065845,-0.06540015,0.02417856,0.00683470,-0.00321850,-0.0
 0018336,-0.00224596,-0.00299894,0.00111075,-0.00210389,-0.00178437,0.0
 0190294,-0.00139207,0.77032588,0.13329426,-0.09004797,-0.07364664,0.00
 235241,0.02007543,-0.00152920,0.00012279,-0.00024574,-0.00012417,-0.00
 020505,-0.00050122,0.00173694,-0.00023257,-0.00029887,-0.00150258,0.02
 555812,0.01328977,-0.00157029,-0.00043393,0.00007317,-0.00032924,0.000
 78531,-0.00055296,0.00067157,0.00190948,-0.00154382,0.00134384,-0.1631
 5010,0.05975333,0.34894518,-0.07364695,-0.26153300,0.04657634,-0.00436
 811,-0.04451352,-0.00030521,0.00054465,-0.00342808,0.00040797,0.001244
 57,-0.00298110,-0.00011652,-0.00050605,-0.00369612,-0.00286481,0.00126
 777,0.01752208,-0.00106865,0.00056549,-0.00036322,0.00018205,0.0000028
 0,-0.00062014,-0.00084915,-0.00005445,-0.00018069,-0.39090925,0.074950
 22,0.29979308||0.00003220,-0.00001176,-0.00001950,-0.00002611,-0.00001
 836,0.00001835,-0.00000341,0.00000747,-0.00000383,0.00000178,0.0000054
 5,-0.00000380,0.00001081,0.00001509,-0.00002076,-0.00003406,-0.0000137
 7,0.00000246,0.00000514,0.00000351,0.00000292,0.00000236,0.00000414,0.
 00000771,0.00002559,0.00000655,0.00000881,-0.00001432,0.00000169,0.000
 00764|||@


 I CLAIM NOT TO HAVE CONTROLLED EVENTS,
 BUT CONFESS PLAINLY THAT EVENTS HAVE CONTROLLED ME.

                                         A. LINCOLN
 Job cpu time:  0 days  0 hours  0 minutes  1.0 seconds.
 File lengths (MBytes):  RWF=     11 Int=      0 D2E=      0 Chk=      7 Scr=      1
 Normal termination of Gaussian 03 at Mon Jun 07 01:52:30 2021.
