 Entering Link 1 = C:\G03W\l1.exe PID=      2364.
  
 Copyright (c) 1988,1990,1992,1993,1995,1998,2003,2004, Gaussian, Inc.
                  All Rights Reserved.
  
 This is the Gaussian(R) 03 program.  It is based on the
 the Gaussian(R) 98 system (copyright 1998, Gaussian, Inc.),
 the Gaussian(R) 94 system (copyright 1995, Gaussian, Inc.),
 the Gaussian 92(TM) system (copyright 1992, Gaussian, Inc.),
 the Gaussian 90(TM) system (copyright 1990, Gaussian, Inc.),
 the Gaussian 88(TM) system (copyright 1988, Gaussian, Inc.),
 the Gaussian 86(TM) system (copyright 1986, Carnegie Mellon
 University), and the Gaussian 82(TM) system (copyright 1983,
 Carnegie Mellon University). Gaussian is a federally registered
 trademark of Gaussian, Inc.
  
 This software contains proprietary and confidential information,
 including trade secrets, belonging to Gaussian, Inc.
  
 This software is provided under written license and may be
 used, copied, transmitted, or stored only in accord with that
 written license.
  
 The following legend is applicable only to US Government
 contracts under FAR:
  
                    RESTRICTED RIGHTS LEGEND
  
 Use, reproduction and disclosure by the US Government is
 subject to restrictions as set forth in subparagraphs (a)
 and (c) of the Commercial Computer Software - Restricted
 Rights clause in FAR 52.227-19.
  
 Gaussian, Inc.
 340 Quinnipiac St., Bldg. 40, Wallingford CT 06492
  
  
 ---------------------------------------------------------------
 Warning -- This program may not be used in any manner that
 competes with the business of Gaussian, Inc. or will provide
 assistance to any competitor of Gaussian, Inc.  The licensee
 of this program is prohibited from giving any competitor of
 Gaussian, Inc. access to this program.  By using this program,
 the user acknowledges that Gaussian, Inc. is engaged in the
 business of creating and licensing software in the field of
 computational chemistry and represents and warrants to the
 licensee that it is not a competitor of Gaussian, Inc. and that
 it will not use this program in any manner prohibited above.
 ---------------------------------------------------------------
  

 Cite this work as:
 Gaussian 03, Revision C.01,
 M. J. Frisch, G. W. Trucks, H. B. Schlegel, G. E. Scuseria, 
 M. A. Robb, J. R. Cheeseman, J. A. Montgomery, Jr., T. Vreven, 
 K. N. Kudin, J. C. Burant, J. M. Millam, S. S. Iyengar, J. Tomasi, 
 V. Barone, B. Mennucci, M. Cossi, G. Scalmani, N. Rega, 
 G. A. Petersson, H. Nakatsuji, M. Hada, M. Ehara, K. Toyota, 
 R. Fukuda, J. Hasegawa, M. Ishida, T. Nakajima, Y. Honda, O. Kitao, 
 H. Nakai, M. Klene, X. Li, J. E. Knox, H. P. Hratchian, J. B. Cross, 
 C. Adamo, J. Jaramillo, R. Gomperts, R. E. Stratmann, O. Yazyev, 
 A. J. Austin, R. Cammi, C. Pomelli, J. W. Ochterski, P. Y. Ayala, 
 K. Morokuma, G. A. Voth, P. Salvador, J. J. Dannenberg, 
 V. G. Zakrzewski, S. Dapprich, A. D. Daniels, M. C. Strain, 
 O. Farkas, D. K. Malick, A. D. Rabuck, K. Raghavachari, 
 J. B. Foresman, J. V. Ortiz, Q. Cui, A. G. Baboul, S. Clifford, 
 J. Cioslowski, B. B. Stefanov, G. Liu, A. Liashenko, P. Piskorz, 
 I. Komaromi, R. L. Martin, D. J. Fox, T. Keith, M. A. Al-Laham, 
 C. Y. Peng, A. Nanayakkara, M. Challacombe, P. M. W. Gill, 
 B. Johnson, W. Chen, M. W. Wong, C. Gonzalez, and J. A. Pople, 
 Gaussian, Inc., Wallingford CT, 2004.
 
 ******************************************
 Gaussian 03:  IA32W-G03RevC.01  3-Apr-2004
                03-Jan-2022 
 ******************************************
 %mem=512MB
 %chk=C:\Users\moaz\Documents\ceftriaxone\HF_ceftriaxone.chk
 Default route:  MaxDisk=2000MB
 -------------------------------------
 # opt freq hf/6-31g geom=connectivity
 -------------------------------------
 1/18=20,38=1,57=2/1,3;
 2/9=110,17=6,18=5,40=1/2;
 3/5=1,6=6,11=9,16=1,25=1,30=1/1,2,3;
 4//1;
 5/5=2,38=5/2;
 6/7=2,8=2,9=2,10=2,28=1/1;
 7//1,2,3,16;
 1/18=20/3(1);
 99//99;
 2/9=110/2;
 3/5=1,6=6,11=9,16=1,25=1,30=1/1,2,3;
 4/5=5,16=3/1;
 5/5=2,38=5/2;
 7//1,2,3,16;
 1/18=20/3(-5);
 2/9=110/2;
 6/7=2,8=2,9=2,10=2,19=2,28=1/1;
 99/9=1/99;
 ---------------------------------
 opt and freq of ceftriaxone at hf
 ---------------------------------
 Symbolic Z-matrix:
 Charge =  0 Multiplicity = 1
 S                    -0.57849   0.28236   2.06884 
 S                     3.45694  -0.45244  -0.07508 
 S                    -3.7219   -3.47083   2.06151 
 O                    -1.57387   1.287    -1.44678 
 O                     1.08438   3.35795  -1.85596 
 O                     2.98179   2.22661  -1.11576 
 O                    -4.73554   1.96107  -0.39334 
 O                    -6.45291   0.76389  -1.67485 
 O                     8.02965  -2.26001   1.0125 
 O                     8.95773  -1.60085  -1.58266 
 N                    -0.37697   2.4179    0.53029 
 N                    -3.40975   0.8822    1.24155 
 N                     5.82189  -0.08822  -1.56932 
 N                    -6.15523  -0.38957  -1.01877 
 N                     5.86573  -1.47364   0.43833 
 N                     6.76931  -0.92155  -2.20855 
 N                    -5.59309  -2.99932   0.37086 
 N                    -5.81025  -5.26785   1.28392 
 C                    -1.12719   1.91384   1.7148 
 C                    -2.39277   1.89136   0.91275 
 C                    -1.47455   1.75752  -0.28388 
 C                     1.05249   2.02388   0.3436 
 C                     1.76574   1.23081   1.21874 
 C                     1.11578   0.56693   2.45005 
 C                     3.26281   0.98986   0.94985 
 C                     1.7782    2.53432  -0.91513 
 C                    -4.4618    0.89401   0.21498 
 C                    -5.22885  -0.39967  -0.11595 
 C                     5.18735  -0.73072  -0.38598 
 C                    -4.8929   -1.7055    0.62798 
 C                    -3.93968  -1.79123   1.59054 
 C                     4.77942   0.23216  -2.55495 
 C                     7.2654   -1.75856   0.14762 
 C                     7.75548  -1.4291   -1.253 
 C                    -5.16404  -3.95349   1.15858 
 C                    -7.47334   1.46771  -0.96194 
 H                    -1.10061   2.44587   2.64278 
 H                    -2.91722   2.82361   0.88508 
 H                     1.60414  -0.35964   2.66888 
 H                     1.1946    1.21534   3.29754 
 H                    -3.81153   1.09187   2.13295 
 H                     3.77218   0.8386    1.87859 
 H                     3.67693   1.8407    0.45038 
 H                     1.70727   3.95083  -2.28268 
 H                    -3.40486  -0.96144   2.00326 
 H                     7.23183  -0.38831  -2.91688 
 H                     4.05601   0.88312  -2.11018 
 H                     4.29978  -0.66995  -2.8728 
 H                     5.22367   0.7165   -3.39931 
 H                    -8.34964   0.85705  -0.89798 
 H                    -7.12605   1.69753   0.0237 
 H                    -7.70788   2.37517  -1.47808 
 H                    -6.24784  -5.50813   0.41743 
 H                    -5.12256  -5.95695   1.51242 
 

 GradGradGradGradGradGradGradGradGradGradGradGradGradGradGradGradGradGrad
 Berny optimization.
 Initialization pass.
                           ----------------------------
                           !    Initial Parameters    !
                           ! (Angstroms and Degrees)  !
 --------------------------                            --------------------------
 ! Name  Definition              Value          Derivative Info.                !
 --------------------------------------------------------------------------------
 ! R1    R(1,19)                 1.7573         estimate D2E/DX2                !
 ! R2    R(1,24)                 1.7598         estimate D2E/DX2                !
 ! R3    R(2,25)                 1.78           estimate D2E/DX2                !
 ! R4    R(2,29)                 1.78           estimate D2E/DX2                !
 ! R5    R(3,31)                 1.7579         estimate D2E/DX2                !
 ! R6    R(3,35)                 1.7686         estimate D2E/DX2                !
 ! R7    R(4,21)                 1.2584         estimate D2E/DX2                !
 ! R8    R(5,26)                 1.43           estimate D2E/DX2                !
 ! R9    R(5,44)                 0.96           estimate D2E/DX2                !
 ! R10   R(6,26)                 1.2584         estimate D2E/DX2                !
 ! R11   R(7,27)                 1.2584         estimate D2E/DX2                !
 ! R12   R(8,14)                 1.36           estimate D2E/DX2                !
 ! R13   R(8,36)                 1.43           estimate D2E/DX2                !
 ! R14   R(9,33)                 1.2584         estimate D2E/DX2                !
 ! R15   R(10,34)                1.2584         estimate D2E/DX2                !
 ! R16   R(11,19)                1.49           estimate D2E/DX2                !
 ! R17   R(11,21)                1.5178         estimate D2E/DX2                !
 ! R18   R(11,22)                1.4945         estimate D2E/DX2                !
 ! R19   R(12,20)                1.4699         estimate D2E/DX2                !
 ! R20   R(12,27)                1.47           estimate D2E/DX2                !
 ! R21   R(12,41)                1.0            estimate D2E/DX2                !
 ! R22   R(12,45)                1.9948         estimate D2E/DX2                !
 ! R23   R(13,16)                1.4144         estimate D2E/DX2                !
 ! R24   R(13,29)                1.4885         estimate D2E/DX2                !
 ! R25   R(13,32)                1.47           estimate D2E/DX2                !
 ! R26   R(14,28)                1.2936         estimate D2E/DX2                !
 ! R27   R(15,29)                1.3006         estimate D2E/DX2                !
 ! R28   R(15,33)                1.4577         estimate D2E/DX2                !
 ! R29   R(16,34)                1.464          estimate D2E/DX2                !
 ! R30   R(16,46)                1.0            estimate D2E/DX2                !
 ! R31   R(17,30)                1.4934         estimate D2E/DX2                !
 ! R32   R(17,35)                1.3096         estimate D2E/DX2                !
 ! R33   R(18,35)                1.47           estimate D2E/DX2                !
 ! R34   R(18,53)                1.0            estimate D2E/DX2                !
 ! R35   R(18,54)                1.0            estimate D2E/DX2                !
 ! R36   R(19,20)                1.4985         estimate D2E/DX2                !
 ! R37   R(19,37)                1.07           estimate D2E/DX2                !
 ! R38   R(20,21)                1.5142         estimate D2E/DX2                !
 ! R39   R(20,38)                1.07           estimate D2E/DX2                !
 ! R40   R(22,23)                1.3797         estimate D2E/DX2                !
 ! R41   R(22,26)                1.54           estimate D2E/DX2                !
 ! R42   R(23,24)                1.5425         estimate D2E/DX2                !
 ! R43   R(23,25)                1.54           estimate D2E/DX2                !
 ! R44   R(24,39)                1.07           estimate D2E/DX2                !
 ! R45   R(24,40)                1.07           estimate D2E/DX2                !
 ! R46   R(25,42)                1.07           estimate D2E/DX2                !
 ! R47   R(25,43)                1.07           estimate D2E/DX2                !
 ! R48   R(27,28)                1.54           estimate D2E/DX2                !
 ! R49   R(28,30)                1.54           estimate D2E/DX2                !
 ! R50   R(30,31)                1.3574         estimate D2E/DX2                !
 ! R51   R(31,45)                1.07           estimate D2E/DX2                !
 ! R52   R(32,47)                1.07           estimate D2E/DX2                !
 ! R53   R(32,48)                1.07           estimate D2E/DX2                !
 ! R54   R(32,49)                1.07           estimate D2E/DX2                !
 ! R55   R(33,34)                1.52           estimate D2E/DX2                !
 ! R56   R(36,50)                1.07           estimate D2E/DX2                !
 ! R57   R(36,51)                1.07           estimate D2E/DX2                !
 ! R58   R(36,52)                1.07           estimate D2E/DX2                !
 ! A1    A(19,1,24)            101.1942         estimate D2E/DX2                !
 ! A2    A(25,2,29)            109.4676         estimate D2E/DX2                !
 ! A3    A(31,3,35)             91.3151         estimate D2E/DX2                !
 ! A4    A(26,5,44)            109.4715         estimate D2E/DX2                !
 ! A5    A(14,8,36)            109.4593         estimate D2E/DX2                !
 ! A6    A(19,11,21)            85.1317         estimate D2E/DX2                !
 ! A7    A(19,11,22)           119.4547         estimate D2E/DX2                !
 ! A8    A(21,11,22)           120.6614         estimate D2E/DX2                !
 ! A9    A(20,12,27)           109.4768         estimate D2E/DX2                !
 ! A10   A(20,12,41)           109.4762         estimate D2E/DX2                !
 ! A11   A(27,12,41)           109.4682         estimate D2E/DX2                !
 ! A12   A(16,13,29)           112.9859         estimate D2E/DX2                !
 ! A13   A(16,13,32)           107.4814         estimate D2E/DX2                !
 ! A14   A(29,13,32)           108.953          estimate D2E/DX2                !
 ! A15   A(8,14,28)            120.0044         estimate D2E/DX2                !
 ! A16   A(29,15,33)           119.0834         estimate D2E/DX2                !
 ! A17   A(13,16,34)           111.13           estimate D2E/DX2                !
 ! A18   A(13,16,46)           108.4068         estimate D2E/DX2                !
 ! A19   A(34,16,46)           109.6116         estimate D2E/DX2                !
 ! A20   A(30,17,35)           111.9658         estimate D2E/DX2                !
 ! A21   A(35,18,53)           109.4706         estimate D2E/DX2                !
 ! A22   A(35,18,54)           109.4708         estimate D2E/DX2                !
 ! A23   A(53,18,54)           109.4714         estimate D2E/DX2                !
 ! A24   A(1,19,11)            108.483          estimate D2E/DX2                !
 ! A25   A(1,19,20)            110.9534         estimate D2E/DX2                !
 ! A26   A(1,19,37)            106.2085         estimate D2E/DX2                !
 ! A27   A(11,19,20)            90.2763         estimate D2E/DX2                !
 ! A28   A(11,19,37)           120.5809         estimate D2E/DX2                !
 ! A29   A(20,19,37)           119.5142         estimate D2E/DX2                !
 ! A30   A(12,20,19)           118.3522         estimate D2E/DX2                !
 ! A31   A(12,20,21)           122.385          estimate D2E/DX2                !
 ! A32   A(12,20,38)           105.3569         estimate D2E/DX2                !
 ! A33   A(19,20,21)            84.9607         estimate D2E/DX2                !
 ! A34   A(19,20,38)           114.5016         estimate D2E/DX2                !
 ! A35   A(21,20,38)           110.719          estimate D2E/DX2                !
 ! A36   A(4,21,11)            135.681          estimate D2E/DX2                !
 ! A37   A(4,21,20)            135.681          estimate D2E/DX2                !
 ! A38   A(11,21,20)            88.6333         estimate D2E/DX2                !
 ! A39   A(11,22,23)           124.526          estimate D2E/DX2                !
 ! A40   A(11,22,26)           117.7397         estimate D2E/DX2                !
 ! A41   A(23,22,26)           117.7339         estimate D2E/DX2                !
 ! A42   A(22,23,24)           122.4053         estimate D2E/DX2                !
 ! A43   A(22,23,25)           118.7989         estimate D2E/DX2                !
 ! A44   A(24,23,25)           118.7937         estimate D2E/DX2                !
 ! A45   A(1,24,23)            107.5991         estimate D2E/DX2                !
 ! A46   A(1,24,39)            110.1016         estimate D2E/DX2                !
 ! A47   A(1,24,40)            109.9064         estimate D2E/DX2                !
 ! A48   A(23,24,39)           110.099          estimate D2E/DX2                !
 ! A49   A(23,24,40)           109.9014         estimate D2E/DX2                !
 ! A50   A(39,24,40)           109.2177         estimate D2E/DX2                !
 ! A51   A(2,25,23)            109.4717         estimate D2E/DX2                !
 ! A52   A(2,25,42)            109.4709         estimate D2E/DX2                !
 ! A53   A(2,25,43)            109.471          estimate D2E/DX2                !
 ! A54   A(23,25,42)           109.4716         estimate D2E/DX2                !
 ! A55   A(23,25,43)           109.4708         estimate D2E/DX2                !
 ! A56   A(42,25,43)           109.4713         estimate D2E/DX2                !
 ! A57   A(5,26,6)             120.0001         estimate D2E/DX2                !
 ! A58   A(5,26,22)            120.0014         estimate D2E/DX2                !
 ! A59   A(6,26,22)            119.9985         estimate D2E/DX2                !
 ! A60   A(7,27,12)            120.0061         estimate D2E/DX2                !
 ! A61   A(7,27,28)            120.0066         estimate D2E/DX2                !
 ! A62   A(12,27,28)           119.9873         estimate D2E/DX2                !
 ! A63   A(14,28,27)           120.0081         estimate D2E/DX2                !
 ! A64   A(14,28,30)           119.9998         estimate D2E/DX2                !
 ! A65   A(27,28,30)           119.992          estimate D2E/DX2                !
 ! A66   A(2,29,13)            119.0633         estimate D2E/DX2                !
 ! A67   A(2,29,15)            119.0554         estimate D2E/DX2                !
 ! A68   A(13,29,15)           121.8733         estimate D2E/DX2                !
 ! A69   A(17,30,28)           123.3103         estimate D2E/DX2                !
 ! A70   A(17,30,31)           113.367          estimate D2E/DX2                !
 ! A71   A(28,30,31)           123.3201         estimate D2E/DX2                !
 ! A72   A(3,31,30)            109.7138         estimate D2E/DX2                !
 ! A73   A(3,31,45)            125.1478         estimate D2E/DX2                !
 ! A74   A(30,31,45)           125.1378         estimate D2E/DX2                !
 ! A75   A(13,32,47)           109.4716         estimate D2E/DX2                !
 ! A76   A(13,32,48)           109.4708         estimate D2E/DX2                !
 ! A77   A(13,32,49)           109.4709         estimate D2E/DX2                !
 ! A78   A(47,32,48)           109.4712         estimate D2E/DX2                !
 ! A79   A(47,32,49)           109.4714         estimate D2E/DX2                !
 ! A80   A(48,32,49)           109.4714         estimate D2E/DX2                !
 ! A81   A(9,33,15)            121.5998         estimate D2E/DX2                !
 ! A82   A(9,33,34)            121.5912         estimate D2E/DX2                !
 ! A83   A(15,33,34)           116.8079         estimate D2E/DX2                !
 ! A84   A(10,34,16)           121.3255         estimate D2E/DX2                !
 ! A85   A(10,34,33)           121.3215         estimate D2E/DX2                !
 ! A86   A(16,34,33)           117.3477         estimate D2E/DX2                !
 ! A87   A(3,35,17)            112.0485         estimate D2E/DX2                !
 ! A88   A(3,35,18)            123.9822         estimate D2E/DX2                !
 ! A89   A(17,35,18)           123.9682         estimate D2E/DX2                !
 ! A90   A(8,36,50)            109.4698         estimate D2E/DX2                !
 ! A91   A(8,36,51)            109.4713         estimate D2E/DX2                !
 ! A92   A(8,36,52)            109.4725         estimate D2E/DX2                !
 ! A93   A(50,36,51)           109.4711         estimate D2E/DX2                !
 ! A94   A(50,36,52)           109.4715         estimate D2E/DX2                !
 ! A95   A(51,36,52)           109.4712         estimate D2E/DX2                !
 ! D1    D(24,1,19,11)          62.5546         estimate D2E/DX2                !
 ! D2    D(24,1,19,20)         160.2234         estimate D2E/DX2                !
 ! D3    D(24,1,19,37)         -68.4254         estimate D2E/DX2                !
 ! D4    D(19,1,24,23)         -58.5744         estimate D2E/DX2                !
 ! D5    D(19,1,24,39)        -178.574          estimate D2E/DX2                !
 ! D6    D(19,1,24,40)          61.0739         estimate D2E/DX2                !
 ! D7    D(29,2,25,23)         179.9929         estimate D2E/DX2                !
 ! D8    D(29,2,25,42)         -60.0065         estimate D2E/DX2                !
 ! D9    D(29,2,25,43)          59.9933         estimate D2E/DX2                !
 ! D10   D(25,2,29,13)         -89.4852         estimate D2E/DX2                !
 ! D11   D(25,2,29,15)          89.5086         estimate D2E/DX2                !
 ! D12   D(35,3,31,30)         -10.5763         estimate D2E/DX2                !
 ! D13   D(35,3,31,45)         169.1727         estimate D2E/DX2                !
 ! D14   D(31,3,35,17)          11.9648         estimate D2E/DX2                !
 ! D15   D(31,3,35,18)        -167.6644         estimate D2E/DX2                !
 ! D16   D(44,5,26,6)          -29.9989         estimate D2E/DX2                !
 ! D17   D(44,5,26,22)         150.0014         estimate D2E/DX2                !
 ! D18   D(36,8,14,28)         -90.0237         estimate D2E/DX2                !
 ! D19   D(14,8,36,50)         -59.9864         estimate D2E/DX2                !
 ! D20   D(14,8,36,51)          60.0126         estimate D2E/DX2                !
 ! D21   D(14,8,36,52)        -179.9866         estimate D2E/DX2                !
 ! D22   D(21,11,19,1)          87.3816         estimate D2E/DX2                !
 ! D23   D(21,11,19,20)        -24.87           estimate D2E/DX2                !
 ! D24   D(21,11,19,37)       -149.9758         estimate D2E/DX2                !
 ! D25   D(22,11,19,1)         -35.2806         estimate D2E/DX2                !
 ! D26   D(22,11,19,20)       -147.5322         estimate D2E/DX2                !
 ! D27   D(22,11,19,37)         87.3621         estimate D2E/DX2                !
 ! D28   D(19,11,21,4)        -154.6595         estimate D2E/DX2                !
 ! D29   D(19,11,21,20)         24.6011         estimate D2E/DX2                !
 ! D30   D(22,11,21,4)         -33.1103         estimate D2E/DX2                !
 ! D31   D(22,11,21,20)        146.1503         estimate D2E/DX2                !
 ! D32   D(19,11,22,23)         -1.4957         estimate D2E/DX2                !
 ! D33   D(19,11,22,26)        178.2816         estimate D2E/DX2                !
 ! D34   D(21,11,22,23)       -104.2926         estimate D2E/DX2                !
 ! D35   D(21,11,22,26)         75.4848         estimate D2E/DX2                !
 ! D36   D(27,12,20,19)       -171.14           estimate D2E/DX2                !
 ! D37   D(27,12,20,21)        -68.1924         estimate D2E/DX2                !
 ! D38   D(27,12,20,38)         59.2992         estimate D2E/DX2                !
 ! D39   D(41,12,20,19)         68.8572         estimate D2E/DX2                !
 ! D40   D(41,12,20,21)        171.8048         estimate D2E/DX2                !
 ! D41   D(41,12,20,38)        -60.7036         estimate D2E/DX2                !
 ! D42   D(20,12,27,7)         -30.0745         estimate D2E/DX2                !
 ! D43   D(20,12,27,28)        149.9224         estimate D2E/DX2                !
 ! D44   D(41,12,27,7)          89.9331         estimate D2E/DX2                !
 ! D45   D(41,12,27,28)        -90.07           estimate D2E/DX2                !
 ! D46   D(29,13,16,34)        -52.5508         estimate D2E/DX2                !
 ! D47   D(29,13,16,46)       -173.0715         estimate D2E/DX2                !
 ! D48   D(32,13,16,34)       -172.7813         estimate D2E/DX2                !
 ! D49   D(32,13,16,46)         66.698          estimate D2E/DX2                !
 ! D50   D(16,13,29,2)        -141.8156         estimate D2E/DX2                !
 ! D51   D(16,13,29,15)         39.2202         estimate D2E/DX2                !
 ! D52   D(32,13,29,2)         -22.4305         estimate D2E/DX2                !
 ! D53   D(32,13,29,15)        158.6053         estimate D2E/DX2                !
 ! D54   D(16,13,32,47)       -178.6265         estimate D2E/DX2                !
 ! D55   D(16,13,32,48)         61.3735         estimate D2E/DX2                !
 ! D56   D(16,13,32,49)        -58.6262         estimate D2E/DX2                !
 ! D57   D(29,13,32,47)         58.6193         estimate D2E/DX2                !
 ! D58   D(29,13,32,48)        -61.3807         estimate D2E/DX2                !
 ! D59   D(29,13,32,49)        178.6196         estimate D2E/DX2                !
 ! D60   D(8,14,28,27)          -0.0698         estimate D2E/DX2                !
 ! D61   D(8,14,28,30)         179.9335         estimate D2E/DX2                !
 ! D62   D(33,15,29,2)         176.8653         estimate D2E/DX2                !
 ! D63   D(33,15,29,13)         -4.1704         estimate D2E/DX2                !
 ! D64   D(29,15,33,9)         167.0063         estimate D2E/DX2                !
 ! D65   D(29,15,33,34)        -13.368          estimate D2E/DX2                !
 ! D66   D(13,16,34,10)       -144.8272         estimate D2E/DX2                !
 ! D67   D(13,16,34,33)         35.9975         estimate D2E/DX2                !
 ! D68   D(46,16,34,10)        -25.0207         estimate D2E/DX2                !
 ! D69   D(46,16,34,33)        155.804          estimate D2E/DX2                !
 ! D70   D(35,17,30,28)       -177.7661         estimate D2E/DX2                !
 ! D71   D(35,17,30,31)          1.6675         estimate D2E/DX2                !
 ! D72   D(30,17,35,3)          -9.801          estimate D2E/DX2                !
 ! D73   D(30,17,35,18)        169.8282         estimate D2E/DX2                !
 ! D74   D(53,18,35,3)        -150.2039         estimate D2E/DX2                !
 ! D75   D(53,18,35,17)         30.2106         estimate D2E/DX2                !
 ! D76   D(54,18,35,3)         -30.2043         estimate D2E/DX2                !
 ! D77   D(54,18,35,17)        150.2102         estimate D2E/DX2                !
 ! D78   D(1,19,20,12)          39.2719         estimate D2E/DX2                !
 ! D79   D(1,19,20,21)         -85.0186         estimate D2E/DX2                !
 ! D80   D(1,19,20,38)         164.487          estimate D2E/DX2                !
 ! D81   D(11,19,20,12)        149.2294         estimate D2E/DX2                !
 ! D82   D(11,19,20,21)         24.9389         estimate D2E/DX2                !
 ! D83   D(11,19,20,38)        -85.5555         estimate D2E/DX2                !
 ! D84   D(37,19,20,12)        -84.8009         estimate D2E/DX2                !
 ! D85   D(37,19,20,21)        150.9086         estimate D2E/DX2                !
 ! D86   D(37,19,20,38)         40.4142         estimate D2E/DX2                !
 ! D87   D(12,20,21,4)          34.231          estimate D2E/DX2                !
 ! D88   D(12,20,21,11)       -145.0296         estimate D2E/DX2                !
 ! D89   D(19,20,21,4)         154.8021         estimate D2E/DX2                !
 ! D90   D(19,20,21,11)        -24.4585         estimate D2E/DX2                !
 ! D91   D(38,20,21,4)         -90.8823         estimate D2E/DX2                !
 ! D92   D(38,20,21,11)         89.857          estimate D2E/DX2                !
 ! D93   D(11,22,23,24)          4.9123         estimate D2E/DX2                !
 ! D94   D(11,22,23,25)       -175.6192         estimate D2E/DX2                !
 ! D95   D(26,22,23,24)       -174.8651         estimate D2E/DX2                !
 ! D96   D(26,22,23,25)          4.6034         estimate D2E/DX2                !
 ! D97   D(11,22,26,5)           0.1051         estimate D2E/DX2                !
 ! D98   D(11,22,26,6)        -179.8946         estimate D2E/DX2                !
 ! D99   D(23,22,26,5)         179.8979         estimate D2E/DX2                !
 ! D100  D(23,22,26,6)          -0.1018         estimate D2E/DX2                !
 ! D101  D(22,23,24,1)          28.9495         estimate D2E/DX2                !
 ! D102  D(22,23,24,39)        148.9507         estimate D2E/DX2                !
 ! D103  D(22,23,24,40)        -90.702          estimate D2E/DX2                !
 ! D104  D(25,23,24,1)        -150.519          estimate D2E/DX2                !
 ! D105  D(25,23,24,39)        -30.5179         estimate D2E/DX2                !
 ! D106  D(25,23,24,40)         89.8294         estimate D2E/DX2                !
 ! D107  D(22,23,25,2)         -89.7449         estimate D2E/DX2                !
 ! D108  D(22,23,25,42)        150.2549         estimate D2E/DX2                !
 ! D109  D(22,23,25,43)         30.2549         estimate D2E/DX2                !
 ! D110  D(24,23,25,2)          89.7431         estimate D2E/DX2                !
 ! D111  D(24,23,25,42)        -30.2571         estimate D2E/DX2                !
 ! D112  D(24,23,25,43)       -150.2571         estimate D2E/DX2                !
 ! D113  D(7,27,28,14)          -0.0398         estimate D2E/DX2                !
 ! D114  D(7,27,28,30)         179.9569         estimate D2E/DX2                !
 ! D115  D(12,27,28,14)        179.9633         estimate D2E/DX2                !
 ! D116  D(12,27,28,30)         -0.04           estimate D2E/DX2                !
 ! D117  D(14,28,30,17)         -0.2874         estimate D2E/DX2                !
 ! D118  D(14,28,30,31)       -179.6651         estimate D2E/DX2                !
 ! D119  D(27,28,30,17)        179.7159         estimate D2E/DX2                !
 ! D120  D(27,28,30,31)          0.3382         estimate D2E/DX2                !
 ! D121  D(17,30,31,3)           7.2237         estimate D2E/DX2                !
 ! D122  D(17,30,31,45)       -172.5254         estimate D2E/DX2                !
 ! D123  D(28,30,31,3)        -173.3428         estimate D2E/DX2                !
 ! D124  D(28,30,31,45)          6.9081         estimate D2E/DX2                !
 ! D125  D(9,33,34,10)          -2.6558         estimate D2E/DX2                !
 ! D126  D(9,33,34,16)         176.5195         estimate D2E/DX2                !
 ! D127  D(15,33,34,10)        177.7185         estimate D2E/DX2                !
 ! D128  D(15,33,34,16)         -3.1062         estimate D2E/DX2                !
 --------------------------------------------------------------------------------
 Trust Radius=3.00D-01 FncErr=1.00D-07 GrdErr=1.00D-07
 Number of steps in this run= 291 maximum allowed number of steps= 324.
 GradGradGradGradGradGradGradGradGradGradGradGradGradGradGradGradGradGrad

 Stoichiometry    C18H18N8O7S3
 Framework group  C1[X(C18H18N8O7S3)]
 Deg. of freedom   156
 Full point group                 C1      NOp   1
 Largest Abelian subgroup         C1      NOp   1
 Largest concise Abelian subgroup C1      NOp   1
                         Standard orientation:                         
 ---------------------------------------------------------------------
 Center     Atomic     Atomic              Coordinates (Angstroms)
 Number     Number      Type              X           Y           Z
 ---------------------------------------------------------------------
    1         16             0        0.771636    0.142935    1.932208
    2         16             0       -3.427134    0.434203    0.006961
    3         16             0        4.000675    3.555030    0.554360
    4          8             0        1.402443   -1.898352   -1.197468
    5          8             0       -1.337655   -3.852314   -0.754291
    6          8             0       -3.125226   -2.453594   -0.228774
    7          8             0        4.630185   -2.403699   -0.255881
    8          8             0        6.250393   -1.728018   -1.971459
    9          8             0       -7.825859    2.724046    0.883118
   10          8             0       -9.012758    1.385340   -1.314566
   11          7             0        0.367762   -2.335232    1.117455
   12          7             0        3.494669   -0.824043    1.089423
   13          7             0       -5.931807   -0.223540   -1.112123
   14          7             0        6.047432   -0.418817   -1.664348
   15          7             0       -5.748029    1.688921    0.391432
   16          7             0       -6.912549    0.435980   -1.889198
   17          7             0        5.690103    2.509596   -1.068869
   18          7             0        6.053970    4.930887   -0.889990
   19          6             0        1.240035   -1.547775    2.033436
   20          6             0        2.424214   -1.829027    1.159308
   21          6             0        1.400880   -2.001978    0.056662
   22          6             0       -1.061761   -1.936804    0.940853
   23          6             0       -1.667301   -0.885239    1.597419
   24          6             0       -0.886059    0.073901    2.518843
   25          6             0       -3.176025   -0.653361    1.393522
   26          6             0       -1.916828   -2.753392   -0.045877
   27          6             0        4.444194   -1.192253    0.029406
   28          6             0        5.211223   -0.095213   -0.731941
   29          6             0       -5.171020    0.701978   -0.228741
   30          6             0        4.982620    1.387233   -0.383223
   31          6             0        4.127390    1.801965    0.585843
   32          6             0       -4.996297   -0.873850   -2.040985
   33          6             0       -7.160693    1.951146    0.145725
   34          6             0       -7.789809    1.253164   -1.049056
   35          6             0        5.363470    3.674107   -0.566638
   36          6             0        7.314262   -2.246268   -1.168657
   37          1             0        1.286963   -1.782775    3.076256
   38          1             0        2.918268   -2.755371    1.365947
   39          1             0       -1.326265    1.048809    2.492810
   40          1             0       -0.901875   -0.292955    3.523861
   41          1             0        3.973149   -0.785021    1.966651
   42          1             0       -3.590975   -0.209827    2.274426
   43          1             0       -3.658407   -1.589551    1.204437
   44          1             0       -2.013941   -4.509713   -0.933375
   45          1             0        3.611752    1.159254    1.268459
   46          1             0       -7.454256   -0.255487   -2.367130
   47          1             0       -4.251939   -1.404110   -1.484518
   48          1             0       -4.524634   -0.131367   -2.650204
   49          1             0       -5.531371   -1.559423   -2.664349
   50          1             0        8.208886   -1.691656   -1.360905
   51          1             0        7.055671   -2.158629   -0.134078
   52          1             0        7.474284   -3.276265   -1.410285
   53          1             0        6.413971    4.883241   -1.821729
   54          1             0        5.409881    5.692629   -0.820046
 ---------------------------------------------------------------------
 Rotational constants (GHZ):      0.1565359      0.0381414      0.0340179
 Standard basis: 6-31G (6D, 7F)
 There are   372 symmetry adapted basis functions of A   symmetry.
 Integral buffers will be    262144 words long.
 Raffenetti 1 integral format.
 Two-electron integral symmetry is turned on.
   372 basis functions,   936 primitive gaussians,   372 cartesian basis functions
   143 alpha electrons      143 beta electrons
       nuclear repulsion energy      4367.8270543203 Hartrees.
 NAtoms=   54 NActive=   54 NUniq=   54 SFac= 1.00D+00 NAtFMM=   60 Big=F
 One-electron integrals computed using PRISM.
 NBasis=   372 RedAO= T  NBF=   372
 NBsUse=   372 1.00D-06 NBFU=   372
 Harris functional with IExCor=  205 diagonalized for initial guess.
 ExpMin= 1.17D-01 ExpMax= 2.19D+04 ExpMxC= 3.30D+03 IAcc=1 IRadAn=         1 AccDes= 1.00D-06
 HarFok:  IExCor= 205 AccDes= 1.00D-06 IRadAn=         1 IDoV=1
 ScaDFX=  1.000000  1.000000  1.000000  1.000000
 Initial guess orbital symmetries:
       Occupied  (A) (A) (A) (A) (A) (A) (A) (A) (A) (A) (A) (A)
                 (A) (A) (A) (A) (A) (A) (A) (A) (A) (A) (A) (A)
                 (A) (A) (A) (A) (A) (A) (A) (A) (A) (A) (A) (A)
                 (A) (A) (A) (A) (A) (A) (A) (A) (A) (A) (A) (A)
                 (A) (A) (A) (A) (A) (A) (A) (A) (A) (A) (A) (A)
                 (A) (A) (A) (A) (A) (A) (A) (A) (A) (A) (A) (A)
                 (A) (A) (A) (A) (A) (A) (A) (A) (A) (A) (A) (A)
                 (A) (A) (A) (A) (A) (A) (A) (A) (A) (A) (A) (A)
                 (A) (A) (A) (A) (A) (A) (A) (A) (A) (A) (A) (A)
                 (A) (A) (A) (A) (A) (A) (A) (A) (A) (A) (A) (A)
                 (A) (A) (A) (A) (A) (A) (A) (A) (A) (A) (A) (A)
                 (A) (A) (A) (A) (A) (A) (A) (A) (A) (A) (A)
       Virtual   (A) (A) (A) (A) (A) (A) (A) (A) (A) (A) (A) (A)
                 (A) (A) (A) (A) (A) (A) (A) (A) (A) (A) (A) (A)
                 (A) (A) (A) (A) (A) (A) (A) (A) (A) (A) (A) (A)
                 (A) (A) (A) (A) (A) (A) (A) (A) (A) (A) (A) (A)
                 (A) (A) (A) (A) (A) (A) (A) (A) (A) (A) (A) (A)
                 (A) (A) (A) (A) (A) (A) (A) (A) (A) (A) (A) (A)
                 (A) (A) (A) (A) (A) (A) (A) (A) (A) (A) (A) (A)
                 (A) (A) (A) (A) (A) (A) (A) (A) (A) (A) (A) (A)
                 (A) (A) (A) (A) (A) (A) (A) (A) (A) (A) (A) (A)
                 (A) (A) (A) (A) (A) (A) (A) (A) (A) (A) (A) (A)
                 (A) (A) (A) (A) (A) (A) (A) (A) (A) (A) (A) (A)
                 (A) (A) (A) (A) (A) (A) (A) (A) (A) (A) (A) (A)
                 (A) (A) (A) (A) (A) (A) (A) (A) (A) (A) (A) (A)
                 (A) (A) (A) (A) (A) (A) (A) (A) (A) (A) (A) (A)
                 (A) (A) (A) (A) (A) (A) (A) (A) (A) (A) (A) (A)
                 (A) (A) (A) (A) (A) (A) (A) (A) (A) (A) (A) (A)
                 (A) (A) (A) (A) (A) (A) (A) (A) (A) (A) (A) (A)
                 (A) (A) (A) (A) (A) (A) (A) (A) (A) (A) (A) (A)
                 (A) (A) (A) (A) (A) (A) (A) (A) (A) (A) (A) (A)
                 (A)
 The electronic state of the initial guess is 1-A.
 Requested convergence on RMS density matrix=1.00D-08 within 128 cycles.
 Requested convergence on MAX density matrix=1.00D-06.
 Requested convergence on             energy=1.00D-06.
 No special actions if energy rises.
 Integral accuracy reduced to 1.0D-05 until final iterations.
 Initial convergence to 1.0D-05 achieved.  Increase integral accuracy.
 SCF Done:  E(RHF) =  -2842.93017353     A.U. after   19 cycles
             Convg  =    0.6254D-08             -V/T =  2.0001
             S**2   =   0.0000

 **********************************************************************

            Population analysis using the SCF density.

 **********************************************************************

 Orbital symmetries:
       Occupied  (A) (A) (A) (A) (A) (A) (A) (A) (A) (A) (A) (A)
                 (A) (A) (A) (A) (A) (A) (A) (A) (A) (A) (A) (A)
                 (A) (A) (A) (A) (A) (A) (A) (A) (A) (A) (A) (A)
                 (A) (A) (A) (A) (A) (A) (A) (A) (A) (A) (A) (A)
                 (A) (A) (A) (A) (A) (A) (A) (A) (A) (A) (A) (A)
                 (A) (A) (A) (A) (A) (A) (A) (A) (A) (A) (A) (A)
                 (A) (A) (A) (A) (A) (A) (A) (A) (A) (A) (A) (A)
                 (A) (A) (A) (A) (A) (A) (A) (A) (A) (A) (A) (A)
                 (A) (A) (A) (A) (A) (A) (A) (A) (A) (A) (A) (A)
                 (A) (A) (A) (A) (A) (A) (A) (A) (A) (A) (A) (A)
                 (A) (A) (A) (A) (A) (A) (A) (A) (A) (A) (A) (A)
                 (A) (A) (A) (A) (A) (A) (A) (A) (A) (A) (A)
       Virtual   (A) (A) (A) (A) (A) (A) (A) (A) (A) (A) (A) (A)
                 (A) (A) (A) (A) (A) (A) (A) (A) (A) (A) (A) (A)
                 (A) (A) (A) (A) (A) (A) (A) (A) (A) (A) (A) (A)
                 (A) (A) (A) (A) (A) (A) (A) (A) (A) (A) (A) (A)
                 (A) (A) (A) (A) (A) (A) (A) (A) (A) (A) (A) (A)
                 (A) (A) (A) (A) (A) (A) (A) (A) (A) (A) (A) (A)
                 (A) (A) (A) (A) (A) (A) (A) (A) (A) (A) (A) (A)
                 (A) (A) (A) (A) (A) (A) (A) (A) (A) (A) (A) (A)
                 (A) (A) (A) (A) (A) (A) (A) (A) (A) (A) (A) (A)
                 (A) (A) (A) (A) (A) (A) (A) (A) (A) (A) (A) (A)
                 (A) (A) (A) (A) (A) (A) (A) (A) (A) (A) (A) (A)
                 (A) (A) (A) (A) (A) (A) (A) (A) (A) (A) (A) (A)
                 (A) (A) (A) (A) (A) (A) (A) (A) (A) (A) (A) (A)
                 (A) (A) (A) (A) (A) (A) (A) (A) (A) (A) (A) (A)
                 (A) (A) (A) (A) (A) (A) (A) (A) (A) (A) (A) (A)
                 (A) (A) (A) (A) (A) (A) (A) (A) (A) (A) (A) (A)
                 (A) (A) (A) (A) (A) (A) (A) (A) (A) (A) (A) (A)
                 (A) (A) (A) (A) (A) (A) (A) (A) (A) (A) (A) (A)
                 (A) (A) (A) (A) (A) (A) (A) (A) (A) (A) (A) (A)
                 (A)
 The electronic state is 1-A.
 Alpha  occ. eigenvalues --  -91.99357 -91.97965 -91.97948 -20.64864 -20.61660
 Alpha  occ. eigenvalues --  -20.61606 -20.61559 -20.61179 -20.60810 -20.60361
 Alpha  occ. eigenvalues --  -15.66934 -15.66692 -15.66646 -15.66192 -15.64101
 Alpha  occ. eigenvalues --  -15.62631 -15.60541 -15.59514 -11.47749 -11.43718
 Alpha  occ. eigenvalues --  -11.43710 -11.42345 -11.41988 -11.41665 -11.37885
 Alpha  occ. eigenvalues --  -11.36981 -11.36335 -11.35405 -11.34942 -11.34620
 Alpha  occ. eigenvalues --  -11.32494 -11.32443 -11.30420 -11.29323 -11.28518
 Alpha  occ. eigenvalues --  -11.26438  -9.01379  -9.00297  -9.00086  -6.69515
 Alpha  occ. eigenvalues --   -6.69372  -6.69080  -6.68473  -6.68321  -6.68252
 Alpha  occ. eigenvalues --   -6.68012  -6.67975  -6.67750  -1.48992  -1.48086
 Alpha  occ. eigenvalues --   -1.44736  -1.44260  -1.42855  -1.40815  -1.40023
 Alpha  occ. eigenvalues --   -1.38332  -1.34997  -1.30506  -1.27800  -1.27720
 Alpha  occ. eigenvalues --   -1.21557  -1.19452  -1.19064  -1.15945  -1.13817
 Alpha  occ. eigenvalues --   -1.10373  -1.08689  -1.03495  -1.01995  -0.99565
 Alpha  occ. eigenvalues --   -0.98136  -0.96486  -0.95474  -0.94640  -0.91186
 Alpha  occ. eigenvalues --   -0.90344  -0.87232  -0.84059  -0.82687  -0.80880
 Alpha  occ. eigenvalues --   -0.80031  -0.77999  -0.77641  -0.77061  -0.74257
 Alpha  occ. eigenvalues --   -0.74102  -0.73810  -0.73482  -0.72187  -0.70728
 Alpha  occ. eigenvalues --   -0.70353  -0.70008  -0.69405  -0.68543  -0.67684
 Alpha  occ. eigenvalues --   -0.67197  -0.66364  -0.66109  -0.65690  -0.65423
 Alpha  occ. eigenvalues --   -0.65282  -0.64947  -0.64195  -0.63583  -0.62684
 Alpha  occ. eigenvalues --   -0.61864  -0.61438  -0.60853  -0.60360  -0.59418
 Alpha  occ. eigenvalues --   -0.58586  -0.58303  -0.57763  -0.57331  -0.56252
 Alpha  occ. eigenvalues --   -0.55950  -0.55173  -0.54659  -0.53676  -0.53651
 Alpha  occ. eigenvalues --   -0.52434  -0.51718  -0.51267  -0.50304  -0.50075
 Alpha  occ. eigenvalues --   -0.49464  -0.48944  -0.48842  -0.48123  -0.47625
 Alpha  occ. eigenvalues --   -0.46250  -0.44606  -0.44350  -0.43992  -0.42550
 Alpha  occ. eigenvalues --   -0.42039  -0.39763  -0.39622  -0.39100  -0.38705
 Alpha  occ. eigenvalues --   -0.38503  -0.37471  -0.33785
 Alpha virt. eigenvalues --    0.01721   0.03232   0.03790   0.08908   0.09803
 Alpha virt. eigenvalues --    0.11115   0.14945   0.15094   0.16438   0.17319
 Alpha virt. eigenvalues --    0.18272   0.18656   0.19170   0.20010   0.20626
 Alpha virt. eigenvalues --    0.21455   0.21709   0.22760   0.23405   0.24121
 Alpha virt. eigenvalues --    0.25242   0.25687   0.26061   0.26243   0.26429
 Alpha virt. eigenvalues --    0.26875   0.27358   0.28654   0.29143   0.29293
 Alpha virt. eigenvalues --    0.29741   0.29904   0.30489   0.31196   0.31252
 Alpha virt. eigenvalues --    0.31849   0.32135   0.32812   0.33327   0.33831
 Alpha virt. eigenvalues --    0.34597   0.35554   0.36279   0.36894   0.36912
 Alpha virt. eigenvalues --    0.37488   0.39135   0.39997   0.41038   0.41473
 Alpha virt. eigenvalues --    0.41722   0.42341   0.43211   0.44339   0.45676
 Alpha virt. eigenvalues --    0.46846   0.47193   0.48339   0.49352   0.50451
 Alpha virt. eigenvalues --    0.50652   0.51797   0.52481   0.53074   0.54326
 Alpha virt. eigenvalues --    0.55657   0.56120   0.57197   0.59257   0.59991
 Alpha virt. eigenvalues --    0.60218   0.60375   0.62018   0.62617   0.63646
 Alpha virt. eigenvalues --    0.65303   0.66872   0.67239   0.67914   0.70003
 Alpha virt. eigenvalues --    0.70532   0.71499   0.72765   0.73499   0.74497
 Alpha virt. eigenvalues --    0.75244   0.75983   0.76918   0.77369   0.77725
 Alpha virt. eigenvalues --    0.78434   0.79292   0.79708   0.80269   0.80828
 Alpha virt. eigenvalues --    0.81313   0.81718   0.81910   0.82889   0.83080
 Alpha virt. eigenvalues --    0.83659   0.84521   0.84864   0.86241   0.86356
 Alpha virt. eigenvalues --    0.87327   0.87523   0.87823   0.88059   0.88426
 Alpha virt. eigenvalues --    0.89178   0.90548   0.91386   0.91582   0.92655
 Alpha virt. eigenvalues --    0.93848   0.93959   0.94748   0.95256   0.96572
 Alpha virt. eigenvalues --    0.96758   0.97563   0.99344   1.00187   1.00541
 Alpha virt. eigenvalues --    1.01401   1.02318   1.03159   1.03474   1.03903
 Alpha virt. eigenvalues --    1.04423   1.05666   1.06432   1.07358   1.07909
 Alpha virt. eigenvalues --    1.07953   1.08367   1.08563   1.09716   1.10334
 Alpha virt. eigenvalues --    1.11079   1.11392   1.12464   1.13106   1.14229
 Alpha virt. eigenvalues --    1.15171   1.15368   1.15880   1.16337   1.17066
 Alpha virt. eigenvalues --    1.17931   1.18261   1.18815   1.19669   1.19928
 Alpha virt. eigenvalues --    1.20442   1.20916   1.21186   1.21354   1.21628
 Alpha virt. eigenvalues --    1.22247   1.22817   1.23089   1.23202   1.23605
 Alpha virt. eigenvalues --    1.24002   1.24549   1.25062   1.25368   1.25999
 Alpha virt. eigenvalues --    1.26691   1.28131   1.28443   1.29638   1.30193
 Alpha virt. eigenvalues --    1.30744   1.31144   1.31990   1.32853   1.33181
 Alpha virt. eigenvalues --    1.34385   1.35185   1.36159   1.36806   1.37267
 Alpha virt. eigenvalues --    1.37734   1.38654   1.40491   1.41666   1.42597
 Alpha virt. eigenvalues --    1.43117   1.44000   1.44619   1.45861   1.47781
 Alpha virt. eigenvalues --    1.50558   1.53117   1.53453   1.53815   1.55749
 Alpha virt. eigenvalues --    1.57990   1.59973   1.61107   1.61586   1.63873
 Alpha virt. eigenvalues --    1.65522   1.65981   1.69785   1.71198   1.73163
 Alpha virt. eigenvalues --    1.76870   1.78252   1.80093   1.81559   1.83064
 Alpha virt. eigenvalues --    1.85220   1.91097   1.91454   2.02449   2.05928
 Alpha virt. eigenvalues --    2.06255   2.10233   2.11084   2.13173   2.15490
 Alpha virt. eigenvalues --    2.28828   2.31664   2.33710   2.35636
          Condensed to atoms (all electrons):
 Mulliken atomic charges:
              1
     1  S    0.447456
     2  S    0.502529
     3  S    0.520091
     4  O   -0.522406
     5  O   -0.709564
     6  O   -0.626935
     7  O   -0.508300
     8  O   -0.510551
     9  O   -0.465937
    10  O   -0.514404
    11  N   -0.670762
    12  N   -0.834610
    13  N   -0.515599
    14  N   -0.121161
    15  N   -0.502126
    16  N   -0.564461
    17  N   -0.484839
    18  N   -0.781493
    19  C   -0.338794
    20  C    0.003970
    21  C    0.719177
    22  C    0.178083
    23  C    0.065351
    24  C   -0.666507
    25  C   -0.631040
    26  C    0.844990
    27  C    0.691881
    28  C    0.164505
    29  C    0.145964
    30  C    0.295685
    31  C   -0.583867
    32  C   -0.297303
    33  C    0.604923
    34  C    0.670190
    35  C    0.136999
    36  C   -0.124759
    37  H    0.253271
    38  H    0.289304
    39  H    0.269496
    40  H    0.239983
    41  H    0.371874
    42  H    0.230856
    43  H    0.305492
    44  H    0.445747
    45  H    0.306713
    46  H    0.394640
    47  H    0.291751
    48  H    0.186779
    49  H    0.172662
    50  H    0.181064
    51  H    0.146134
    52  H    0.198130
    53  H    0.362720
    54  H    0.337013
 Sum of Mulliken charges=   0.00000
 Atomic charges with hydrogens summed into heavy atoms:
              1
     1  S    0.447456
     2  S    0.502529
     3  S    0.520091
     4  O   -0.522406
     5  O   -0.263817
     6  O   -0.626935
     7  O   -0.508300
     8  O   -0.510551
     9  O   -0.465937
    10  O   -0.514404
    11  N   -0.670762
    12  N   -0.462736
    13  N   -0.515599
    14  N   -0.121161
    15  N   -0.502126
    16  N   -0.169822
    17  N   -0.484839
    18  N   -0.081760
    19  C   -0.085523
    20  C    0.293273
    21  C    0.719177
    22  C    0.178083
    23  C    0.065351
    24  C   -0.157028
    25  C   -0.094693
    26  C    0.844990
    27  C    0.691881
    28  C    0.164505
    29  C    0.145964
    30  C    0.295685
    31  C   -0.277154
    32  C    0.353889
    33  C    0.604923
    34  C    0.670190
    35  C    0.136999
    36  C    0.400569
    37  H    0.000000
    38  H    0.000000
    39  H    0.000000
    40  H    0.000000
    41  H    0.000000
    42  H    0.000000
    43  H    0.000000
    44  H    0.000000
    45  H    0.000000
    46  H    0.000000
    47  H    0.000000
    48  H    0.000000
    49  H    0.000000
    50  H    0.000000
    51  H    0.000000
    52  H    0.000000
    53  H    0.000000
    54  H    0.000000
 Sum of Mulliken charges=   0.00000
 Electronic spatial extent (au):  <R**2>= 29661.0347
 Charge=     0.0000 electrons
 Dipole moment (field-independent basis, Debye):
    X=     4.8162    Y=    -5.8656    Z=     6.9370  Tot=    10.2822
 Quadrupole moment (field-independent basis, Debye-Ang):
   XX=  -315.3190   YY=  -225.6058   ZZ=  -224.0099
   XY=    42.7083   XZ=    32.2989   YZ=   -20.5929
 Traceless Quadrupole moment (field-independent basis, Debye-Ang):
   XX=   -60.3407   YY=    29.3724   ZZ=    30.9684
   XY=    42.7083   XZ=    32.2989   YZ=   -20.5929
 Octapole moment (field-independent basis, Debye-Ang**2):
  XXX=   810.2657  YYY=     1.7503  ZZZ=    30.7763  XYY=   108.7354
  XXY=  -456.9766  XXZ=    15.7033  XZZ=   -43.6414  YZZ=   -18.2308
  YYZ=   -76.0989  XYZ=   -72.7997
 Hexadecapole moment (field-independent basis, Debye-Ang**3):
 XXXX=-39665.3905 YYYY= -5222.6261 ZZZZ= -2214.7385 XXXY=  1667.4867
 XXXZ=   615.6030 YYYX=   826.5977 YYYZ=  -262.2257 ZZZX=   154.8683
 ZZZY=   -35.7199 XXYY= -6623.6957 XXZZ= -5690.2427 YYZZ= -1346.6390
 XXYZ=  -336.0619 YYXZ=  -137.5550 ZZXY=   186.0498
 N-N= 4.367827054320D+03 E-N=-1.544322221040D+04  KE= 2.842584176589D+03
 ***** Axes restored to original set *****
 -------------------------------------------------------------------
 Center     Atomic                   Forces (Hartrees/Bohr)
 Number     Number              X              Y              Z
 -------------------------------------------------------------------
    1         16          -0.044833877   -0.086962706    0.019224944
    2         16          -0.029973601   -0.051699806   -0.017517829
    3         16           0.015278797   -0.018160271    0.040790745
    4          8           0.018507402    0.040627581    0.101442511
    5          8           0.029790881   -0.031211086    0.058744018
    6          8          -0.077841451    0.044758002   -0.021891211
    7          8           0.030914570   -0.057288393    0.046569512
    8          8          -0.002633352    0.016443246   -0.015375061
    9          8          -0.056169474    0.036915232   -0.063344262
   10          8          -0.078408822    0.009872429    0.017242173
   11          7           0.012946651   -0.046340829   -0.033304608
   12          7          -0.009802249    0.018808018   -0.045599110
   13          7          -0.073492615   -0.018065925    0.035765816
   14          7           0.026541380   -0.045385576    0.036589829
   15          7           0.015633718    0.012042554   -0.030812100
   16          7           0.061637498   -0.021602042    0.057223425
   17          7           0.014812503    0.022511658    0.025118970
   18          7           0.051705145    0.049766708   -0.021123373
   19          6           0.013930164    0.037221903    0.018971528
   20          6          -0.021278665   -0.008175327    0.002865561
   21          6           0.000302724   -0.008710753   -0.092096268
   22          6          -0.002759270    0.003329457   -0.007190102
   23          6          -0.004151081    0.020544662   -0.026573999
   24          6           0.040678262    0.035026805   -0.026421961
   25          6          -0.003915184    0.034138066    0.050587477
   26          6           0.015638773    0.005845300   -0.018505721
   27          6          -0.015777828    0.033044649   -0.026017669
   28          6          -0.006767395   -0.004809441    0.001047425
   29          6           0.080882426    0.002930839   -0.000831978
   30          6          -0.012235717   -0.015056163   -0.009196028
   31          6          -0.022295525    0.007158105   -0.025169409
   32          6           0.001033032    0.011556284   -0.005843330
   33          6           0.011558467   -0.021929172    0.052488972
   34          6           0.056198677   -0.002164465   -0.047007620
   35          6          -0.040484133    0.004121579   -0.037039291
   36          6          -0.013422326    0.006117737    0.004086297
   37          1           0.002137776    0.019529431   -0.006095562
   38          1           0.011846387    0.016388052   -0.002958721
   39          1           0.000325132   -0.006206660    0.000234589
   40          1           0.005886601    0.003864995    0.008791019
   41          1          -0.001066619   -0.004539706    0.007712337
   42          1           0.000278646   -0.004240560    0.009425742
   43          1           0.005244591   -0.006499712    0.012458961
   44          1          -0.003724709   -0.006509723   -0.006029383
   45          1           0.007229477   -0.020450694   -0.005302298
   46          1           0.001039481   -0.005143119   -0.005679528
   47          1           0.005077901    0.002024696   -0.007111283
   48          1          -0.004096907   -0.006326305   -0.007102210
   49          1           0.004963776    0.004176816   -0.005147095
   50          1          -0.006344321   -0.005168849   -0.000405702
   51          1           0.000003790    0.003912509    0.005448977
   52          1           0.005414428    0.001736537   -0.007172072
   53          1          -0.010643854    0.002954583    0.002209388
   54          1          -0.005320081   -0.004721153    0.008824567
 -------------------------------------------------------------------
 Cartesian Forces:  Max     0.101442511 RMS     0.029657411

 GradGradGradGradGradGradGradGradGradGradGradGradGradGradGradGradGradGrad
 Berny optimization.
 Internal  Forces:  Max     0.117255269 RMS     0.024218130
 Search for a local minimum.
 Step number   1 out of a maximum of 291
 All quantities printed in internal units (Hartrees-Bohrs-Radians)
 Second derivative matrix not updated -- first step.
     Eigenvalues ---    0.00237   0.00237   0.00237   0.00253   0.00438
     Eigenvalues ---    0.00503   0.00590   0.00619   0.00635   0.00635
     Eigenvalues ---    0.00639   0.00719   0.00746   0.00766   0.00766
     Eigenvalues ---    0.00766   0.00766   0.00811   0.00849   0.00930
     Eigenvalues ---    0.01104   0.01133   0.01180   0.01276   0.01295
     Eigenvalues ---    0.01295   0.01493   0.01730   0.01800   0.01824
     Eigenvalues ---    0.01846   0.01882   0.02147   0.03100   0.03326
     Eigenvalues ---    0.03398   0.03599   0.03783   0.03803   0.04769
     Eigenvalues ---    0.04959   0.05077   0.05454   0.05790   0.06127
     Eigenvalues ---    0.06469   0.06779   0.07191   0.07537   0.07537
     Eigenvalues ---    0.07598   0.07716   0.09112   0.09843   0.10177
     Eigenvalues ---    0.10344   0.10344   0.11082   0.11161   0.11288
     Eigenvalues ---    0.11891   0.13814   0.16000   0.16000   0.16000
     Eigenvalues ---    0.16000   0.16000   0.16000   0.16000   0.16000
     Eigenvalues ---    0.16000   0.16388   0.16443   0.16518   0.18677
     Eigenvalues ---    0.20107   0.21666   0.22109   0.23075   0.23464
     Eigenvalues ---    0.23599   0.24864   0.24976   0.24992   0.24998
     Eigenvalues ---    0.24998   0.24999   0.24999   0.25000   0.25000
     Eigenvalues ---    0.25000   0.25000   0.25000   0.25000   0.25000
     Eigenvalues ---    0.25000   0.25000   0.25000   0.25000   0.26212
     Eigenvalues ---    0.27280   0.27758   0.27758   0.28073   0.28276
     Eigenvalues ---    0.28394   0.28519   0.28519   0.28522   0.28546
     Eigenvalues ---    0.28803   0.29296   0.29744   0.29922   0.31674
     Eigenvalues ---    0.32386   0.32561   0.32842   0.35261   0.35716
     Eigenvalues ---    0.35742   0.35743   0.35746   0.36592   0.37108
     Eigenvalues ---    0.37230   0.37230   0.37230   0.37230   0.37230
     Eigenvalues ---    0.37230   0.37230   0.37230   0.37230   0.37230
     Eigenvalues ---    0.37230   0.37231   0.40988   0.40990   0.41740
     Eigenvalues ---    0.47296   0.47688   0.47689   0.47689   0.47689
     Eigenvalues ---    0.50575   0.52954   0.55473   0.62091   0.64604
     Eigenvalues ---    0.69008   0.80207   0.80207   0.80209   0.80209
     Eigenvalues ---    0.802111000.000001000.000001000.000001000.00000
     Eigenvalues --- 1000.000001000.000001000.000001000.000001000.00000
     Eigenvalues --- 1000.000001000.000001000.000001000.000001000.00000
     Eigenvalues --- 1000.000001000.000001000.000001000.000001000.00000
     Eigenvalues --- 1000.000001000.000001000.000001000.000001000.00000
     Eigenvalues --- 1000.000001000.000001000.000001000.000001000.00000
     Eigenvalues --- 1000.000001000.000001000.000001000.000001000.00000
     Eigenvalues --- 1000.000001000.000001000.000001000.000001000.00000
     Eigenvalues --- 1000.000001000.000001000.000001000.000001000.00000
     Eigenvalues --- 1000.000001000.000001000.000001000.000001000.00000
     Eigenvalues --- 1000.000001000.000001000.000001000.000001000.00000
     Eigenvalues --- 1000.000001000.000001000.000001000.000001000.00000
     Eigenvalues --- 1000.000001000.000001000.000001000.000001000.00000
     Eigenvalues --- 1000.000001000.000001000.000001000.000001000.00000
     Eigenvalues --- 1000.000001000.000001000.000001000.000001000.00000
     Eigenvalues --- 1000.000001000.000001000.000001000.000001000.00000
     Eigenvalues --- 1000.000001000.000001000.000001000.000001000.00000
     Eigenvalues --- 1000.000001000.000001000.000001000.000001000.00000
     Eigenvalues --- 1000.000001000.000001000.000001000.000001000.00000
     Eigenvalues --- 1000.000001000.000001000.000001000.000001000.00000
     Eigenvalues --- 1000.000001000.000001000.000001000.000001000.00000
     Eigenvalues --- 1000.000001000.000001000.000001000.000001000.00000
     Eigenvalues --- 1000.000001000.000001000.000001000.000001000.00000
     Eigenvalues --- 1000.000001000.000001000.000001000.000001000.00000
     Eigenvalues --- 1000.000001000.000001000.000001000.000001000.00000
     Eigenvalues --- 1000.00000
 RFO step:  Lambda=-2.74565390D-01.
 Linear search not attempted -- first point.
 Maximum step size (   0.300) exceeded in Quadratic search.
    -- Step size scaled by   0.423
 Iteration  1 RMS(Cart)=  0.18783377 RMS(Int)=  0.00573642
 Iteration  2 RMS(Cart)=  0.01426140 RMS(Int)=  0.00008132
 Iteration  3 RMS(Cart)=  0.00009183 RMS(Int)=  0.00007723
 Iteration  4 RMS(Cart)=  0.00000001 RMS(Int)=  0.00007723
 Variable       Old X    -DE/DX   Delta X   Delta X   Delta X     New X
                                 (Linear)    (Quad)   (Total)
    R1        3.32084   0.04483   0.00000   0.03374   0.03389   3.35473
    R2        3.32552   0.03322   0.00000   0.02666   0.02675   3.35227
    R3        3.36371   0.05390   0.00000   0.04126   0.04126   3.40497
    R4        3.36371   0.02624   0.00000   0.02008   0.02008   3.38380
    R5        3.32199   0.00905   0.00000   0.00768   0.00770   3.32969
    R6        3.34221   0.01354   0.00000   0.01047   0.01051   3.35272
    R7        2.37804  -0.11039   0.00000  -0.04333  -0.04333   2.33471
    R8        2.70232  -0.06905   0.00000  -0.04264  -0.04264   2.65968
    R9        1.81414  -0.00376   0.00000  -0.00191  -0.00191   1.81223
   R10        2.37802  -0.08191   0.00000  -0.03215  -0.03215   2.34587
   R11        2.37804  -0.07781   0.00000  -0.03054  -0.03054   2.34750
   R12        2.56997   0.02973   0.00000   0.01563   0.01563   2.58560
   R13        2.70230   0.01446   0.00000   0.00893   0.00893   2.71123
   R14        2.37803  -0.09236   0.00000  -0.03625  -0.03625   2.34178
   R15        2.37803  -0.08077   0.00000  -0.03171  -0.03171   2.34633
   R16        2.81561   0.00625   0.00000   0.00317   0.00325   2.81885
   R17        2.86820  -0.02546   0.00000  -0.02184  -0.02182   2.84638
   R18        2.82416  -0.03340   0.00000  -0.02518  -0.02530   2.79885
   R19        2.77780  -0.00048   0.00000  -0.00032  -0.00032   2.77748
   R20        2.77784  -0.02530   0.00000  -0.01695  -0.01694   2.76090
   R21        1.88972   0.00635   0.00000   0.00357   0.00357   1.89329
   R22        3.76963   0.01090   0.00000   0.01424   0.01426   3.78388
   R23        2.67292   0.02845   0.00000   0.01801   0.01802   2.69094
   R24        2.81293  -0.02999   0.00000  -0.02068  -0.02065   2.79228
   R25        2.77788   0.01444   0.00000   0.00966   0.00966   2.78753
   R26        2.44451  -0.02319   0.00000  -0.01016  -0.01016   2.43435
   R27        2.45781  -0.03726   0.00000  -0.01672  -0.01670   2.44112
   R28        2.75457  -0.04189   0.00000  -0.02762  -0.02763   2.72694
   R29        2.76651  -0.05533   0.00000  -0.03686  -0.03688   2.72963
   R30        1.88972   0.00176   0.00000   0.00099   0.00099   1.89071
   R31        2.82218  -0.06014   0.00000  -0.04283  -0.04287   2.77931
   R32        2.47476  -0.04096   0.00000  -0.01933  -0.01934   2.45541
   R33        2.77786  -0.05949   0.00000  -0.03978  -0.03978   2.73808
   R34        1.88973   0.00203   0.00000   0.00114   0.00114   1.89088
   R35        1.88972   0.00161   0.00000   0.00091   0.00091   1.89062
   R36        2.83174   0.00605   0.00000   0.00708   0.00709   2.83883
   R37        2.02201   0.00448   0.00000   0.00292   0.00292   2.02493
   R38        2.86152  -0.00402   0.00000  -0.00213  -0.00221   2.85930
   R39        2.02201   0.00855   0.00000   0.00558   0.00558   2.02759
   R40        2.60724   0.01650   0.00000   0.00822   0.00807   2.61531
   R41        2.91017  -0.02283   0.00000  -0.01723  -0.01723   2.89294
   R42        2.91491  -0.00964   0.00000  -0.00659  -0.00662   2.90828
   R43        2.91017  -0.00650   0.00000  -0.00491  -0.00491   2.90526
   R44        2.02201   0.00557   0.00000   0.00364   0.00364   2.02565
   R45        2.02200   0.00974   0.00000   0.00636   0.00636   2.02836
   R46        2.02201   0.00891   0.00000   0.00582   0.00582   2.02783
   R47        2.02200  -0.00895   0.00000  -0.00585  -0.00585   2.01615
   R48        2.91010  -0.00950   0.00000  -0.00708  -0.00709   2.90301
   R49        2.91012  -0.04492   0.00000  -0.03378  -0.03380   2.87633
   R50        2.56510  -0.01642   0.00000  -0.00844  -0.00846   2.55663
   R51        2.02203  -0.00810   0.00000  -0.00536  -0.00535   2.01668
   R52        2.02201  -0.00516   0.00000  -0.00337  -0.00337   2.01864
   R53        2.02200   0.00928   0.00000   0.00606   0.00606   2.02807
   R54        2.02200   0.00801   0.00000   0.00524   0.00524   2.02724
   R55        2.87243  -0.01842   0.00000  -0.01403  -0.01406   2.85836
   R56        2.02201   0.00812   0.00000   0.00531   0.00531   2.02732
   R57        2.02201   0.00586   0.00000   0.00383   0.00383   2.02584
   R58        2.02199   0.00375   0.00000   0.00245   0.00245   2.02444
    A1        1.76617  -0.04806   0.00000  -0.04401  -0.04361   1.72256
    A2        1.91057  -0.03085   0.00000  -0.02485  -0.02485   1.88572
    A3        1.59375  -0.03572   0.00000  -0.02595  -0.02591   1.56784
    A4        1.91064   0.00631   0.00000   0.00613   0.00613   1.91677
    A5        1.91043   0.02841   0.00000   0.02288   0.02288   1.93331
    A6        1.48583   0.00588   0.00000   0.00819   0.00817   1.49400
    A7        2.08488   0.01384   0.00000   0.01558   0.01551   2.10039
    A8        2.10594   0.00251   0.00000   0.00258   0.00228   2.10822
    A9        1.91073   0.02071   0.00000   0.01760   0.01758   1.92831
   A10        1.91072  -0.00275   0.00000  -0.00094  -0.00095   1.90977
   A11        1.91058  -0.00553   0.00000  -0.00380  -0.00384   1.90674
   A12        1.97198  -0.01708   0.00000  -0.01316  -0.01320   1.95878
   A13        1.87590  -0.00801   0.00000  -0.00771  -0.00767   1.86823
   A14        1.90159   0.03938   0.00000   0.03910   0.03912   1.94071
   A15        2.09447   0.02798   0.00000   0.02254   0.02254   2.11702
   A16        2.07840   0.01401   0.00000   0.01075   0.01078   2.08918
   A17        1.93958   0.01981   0.00000   0.02140   0.02140   1.96098
   A18        1.89206   0.00225   0.00000   0.00233   0.00236   1.89442
   A19        1.91308  -0.01041   0.00000  -0.00849  -0.00858   1.90450
   A20        1.95417  -0.00430   0.00000  -0.00555  -0.00565   1.94852
   A21        1.91062   0.00446   0.00000   0.00563   0.00555   1.91617
   A22        1.91063   0.01494   0.00000   0.01582   0.01574   1.92637
   A23        1.91064   0.00272   0.00000   0.00523   0.00507   1.91571
   A24        1.89339   0.00888   0.00000   0.00799   0.00808   1.90146
   A25        1.93650  -0.00904   0.00000  -0.00610  -0.00605   1.93046
   A26        1.85369   0.00661   0.00000   0.00716   0.00711   1.86080
   A27        1.57562  -0.00873   0.00000  -0.00898  -0.00899   1.56663
   A28        2.10453  -0.00393   0.00000  -0.00513  -0.00517   2.09937
   A29        2.08592   0.00421   0.00000   0.00321   0.00313   2.08905
   A30        2.06564   0.00055   0.00000   0.00060   0.00060   2.06624
   A31        2.13602  -0.00008   0.00000  -0.00272  -0.00269   2.13333
   A32        1.83883   0.01271   0.00000   0.01550   0.01553   1.85435
   A33        1.48284  -0.00107   0.00000   0.00049   0.00049   1.48334
   A34        1.99843  -0.00768   0.00000  -0.00955  -0.00960   1.98883
   A35        1.93241  -0.00913   0.00000  -0.00981  -0.00987   1.92254
   A36        2.36808  -0.01400   0.00000  -0.01041  -0.01042   2.35766
   A37        2.36808   0.00823   0.00000   0.00747   0.00746   2.37554
   A38        1.54694   0.00582   0.00000   0.00300   0.00301   1.54995
   A39        2.17339  -0.00752   0.00000  -0.01027  -0.01040   2.16299
   A40        2.05495  -0.10971   0.00000  -0.08628  -0.08623   1.96872
   A41        2.05484   0.11726   0.00000   0.09657   0.09662   2.15147
   A42        2.13638  -0.01182   0.00000  -0.01129  -0.01134   2.12503
   A43        2.07343   0.10757   0.00000   0.08753   0.08755   2.16098
   A44        2.07334  -0.09571   0.00000  -0.07620  -0.07618   1.99716
   A45        1.87796   0.03164   0.00000   0.03112   0.03127   1.90922
   A46        1.92164  -0.01829   0.00000  -0.01650  -0.01644   1.90519
   A47        1.91823   0.00116   0.00000   0.00104   0.00085   1.91908
   A48        1.92159  -0.00785   0.00000  -0.00809  -0.00816   1.91343
   A49        1.91814  -0.00750   0.00000  -0.00633  -0.00640   1.91174
   A50        1.90621   0.00101   0.00000  -0.00102  -0.00108   1.90513
   A51        1.91064  -0.00309   0.00000  -0.00242  -0.00254   1.90810
   A52        1.91063  -0.00532   0.00000  -0.00811  -0.00822   1.90241
   A53        1.91063   0.00806   0.00000   0.01071   0.01062   1.92125
   A54        1.91064  -0.01211   0.00000  -0.01450  -0.01455   1.89609
   A55        1.91063   0.01551   0.00000   0.01769   0.01765   1.92827
   A56        1.91063  -0.00304   0.00000  -0.00337  -0.00328   1.90735
   A57        2.09440  -0.02373   0.00000  -0.01912  -0.01912   2.07528
   A58        2.09442  -0.05412   0.00000  -0.04360  -0.04360   2.05082
   A59        2.09437   0.07785   0.00000   0.06272   0.06272   2.15709
   A60        2.09450  -0.01959   0.00000  -0.01591  -0.01590   2.07860
   A61        2.09451   0.02488   0.00000   0.01991   0.01993   2.11444
   A62        2.09417  -0.00529   0.00000  -0.00400  -0.00403   2.09014
   A63        2.09454   0.04420   0.00000   0.03537   0.03540   2.12994
   A64        2.09439  -0.04199   0.00000  -0.03406  -0.03403   2.06036
   A65        2.09426  -0.00221   0.00000  -0.00131  -0.00138   2.09288
   A66        2.07805   0.02967   0.00000   0.02402   0.02400   2.10204
   A67        2.07791  -0.02956   0.00000  -0.02377  -0.02380   2.05411
   A68        2.12709  -0.00010   0.00000  -0.00024  -0.00018   2.12691
   A69        2.15217  -0.03061   0.00000  -0.02470  -0.02464   2.12754
   A70        1.97863   0.01050   0.00000   0.00796   0.00790   1.98653
   A71        2.15234   0.02012   0.00000   0.01676   0.01675   2.16909
   A72        1.91487   0.00763   0.00000   0.00801   0.00798   1.92285
   A73        2.18424  -0.00831   0.00000  -0.00853  -0.00850   2.17574
   A74        2.18407   0.00068   0.00000   0.00052   0.00051   2.18458
   A75        1.91064   0.00544   0.00000   0.00547   0.00545   1.91609
   A76        1.91063   0.00603   0.00000   0.00623   0.00622   1.91684
   A77        1.91063  -0.00644   0.00000  -0.00681  -0.00680   1.90383
   A78        1.91063   0.00000   0.00000   0.00108   0.00105   1.91168
   A79        1.91064  -0.00339   0.00000  -0.00403  -0.00403   1.90661
   A80        1.91064  -0.00164   0.00000  -0.00195  -0.00194   1.90870
   A81        2.12232  -0.00300   0.00000  -0.00225  -0.00223   2.12008
   A82        2.12217  -0.00265   0.00000  -0.00196  -0.00195   2.12022
   A83        2.03868   0.00564   0.00000   0.00420   0.00417   2.04286
   A84        2.11753   0.00232   0.00000   0.00207   0.00209   2.11962
   A85        2.11746   0.01063   0.00000   0.00874   0.00877   2.12623
   A86        2.04810  -0.01294   0.00000  -0.01082  -0.01086   2.03725
   A87        1.95562   0.02472   0.00000   0.01963   0.01962   1.97524
   A88        2.16390  -0.01394   0.00000  -0.01110  -0.01110   2.15280
   A89        2.16365  -0.01079   0.00000  -0.00855  -0.00855   2.15510
   A90        1.91061   0.00059   0.00000   0.00070   0.00068   1.91129
   A91        1.91063   0.00706   0.00000   0.00703   0.00703   1.91767
   A92        1.91066  -0.01416   0.00000  -0.01407  -0.01407   1.89659
   A93        1.91063   0.00124   0.00000   0.00179   0.00178   1.91241
   A94        1.91064   0.00391   0.00000   0.00347   0.00345   1.91409
   A95        1.91063   0.00137   0.00000   0.00108   0.00108   1.91172
    D1        1.09178  -0.00593   0.00000  -0.00723  -0.00714   1.08465
    D2        2.79643  -0.01556   0.00000  -0.01639  -0.01630   2.78013
    D3       -1.19425  -0.01160   0.00000  -0.01118  -0.01120  -1.20545
    D4       -1.02232  -0.00238   0.00000  -0.00276  -0.00310  -1.02542
    D5       -3.11670  -0.00148   0.00000  -0.00228  -0.00236  -3.11906
    D6        1.06594   0.00813   0.00000   0.00878   0.00873   1.07467
    D7        3.14147   0.02002   0.00000   0.02602   0.02602  -3.11570
    D8       -1.04731   0.00003   0.00000   0.00182   0.00186  -1.04545
    D9        1.04708  -0.00202   0.00000  -0.00072  -0.00075   1.04633
   D10       -1.56181  -0.01316   0.00000  -0.01916  -0.01916  -1.58097
   D11        1.56222  -0.01183   0.00000  -0.01844  -0.01844   1.54378
   D12       -0.18459   0.01266   0.00000   0.01624   0.01610  -0.16849
   D13        2.95262   0.01161   0.00000   0.01488   0.01473   2.96735
   D14        0.20882  -0.01026   0.00000  -0.01483  -0.01481   0.19402
   D15       -2.92630  -0.00842   0.00000  -0.01173  -0.01166  -2.93795
   D16       -0.52358   0.00695   0.00000   0.01021   0.01021  -0.51336
   D17        2.61802   0.00699   0.00000   0.01027   0.01027   2.62829
   D18       -1.57121  -0.02013   0.00000  -0.02906  -0.02906  -1.60027
   D19       -1.04696  -0.00305   0.00000  -0.00335  -0.00335  -1.05031
   D20        1.04742   0.00314   0.00000   0.00358   0.00360   1.05101
   D21       -3.14136   0.00047   0.00000   0.00059   0.00057  -3.14079
   D22        1.52510  -0.00935   0.00000  -0.00569  -0.00571   1.51939
   D23       -0.43406   0.00217   0.00000   0.00293   0.00291  -0.43116
   D24       -2.61757   0.00497   0.00000   0.00764   0.00763  -2.60994
   D25       -0.61576  -0.01954   0.00000  -0.01784  -0.01788  -0.63365
   D26       -2.57492  -0.00801   0.00000  -0.00922  -0.00927  -2.58419
   D27        1.52476  -0.00522   0.00000  -0.00451  -0.00454   1.52021
   D28       -2.69932  -0.00531   0.00000  -0.00540  -0.00535  -2.70467
   D29        0.42937  -0.00057   0.00000  -0.00142  -0.00141   0.42796
   D30       -0.57788   0.01563   0.00000   0.01913   0.01917  -0.55872
   D31        2.55080   0.02037   0.00000   0.02311   0.02311   2.57391
   D32       -0.02611   0.00001   0.00000   0.00112   0.00143  -0.02467
   D33        3.11160   0.00894   0.00000   0.01064   0.01041   3.12201
   D34       -1.82025  -0.01999   0.00000  -0.02337  -0.02310  -1.84335
   D35        1.31746  -0.01106   0.00000  -0.01385  -0.01413   1.30333
   D36       -2.98696   0.00176   0.00000   0.00169   0.00170  -2.98525
   D37       -1.19018   0.00066   0.00000   0.00094   0.00097  -1.18921
   D38        1.03497   0.00021   0.00000   0.00012   0.00011   1.03508
   D39        1.20178  -0.00247   0.00000  -0.00385  -0.00387   1.19792
   D40        2.99856  -0.00357   0.00000  -0.00461  -0.00460   2.99396
   D41       -1.05948  -0.00402   0.00000  -0.00543  -0.00546  -1.06494
   D42       -0.52490  -0.00335   0.00000  -0.00424  -0.00422  -0.52912
   D43        2.61664  -0.00098   0.00000  -0.00066  -0.00068   2.61596
   D44        1.56963   0.00258   0.00000   0.00306   0.00308   1.57271
   D45       -1.57202   0.00496   0.00000   0.00664   0.00662  -1.56540
   D46       -0.91718   0.01023   0.00000   0.01265   0.01265  -0.90453
   D47       -3.02067   0.00948   0.00000   0.00849   0.00840  -3.01226
   D48       -3.01560  -0.02301   0.00000  -0.02284  -0.02279  -3.03839
   D49        1.16410  -0.02377   0.00000  -0.02700  -0.02704   1.13706
   D50       -2.47515  -0.01450   0.00000  -0.01803  -0.01794  -2.49309
   D51        0.68452  -0.01557   0.00000  -0.01853  -0.01846   0.66606
   D52       -0.39149  -0.00859   0.00000  -0.00945  -0.00946  -0.40095
   D53        2.76819  -0.00966   0.00000  -0.00995  -0.00999   2.75820
   D54       -3.11762   0.00366   0.00000   0.00727   0.00731  -3.11031
   D55        1.07117  -0.00337   0.00000  -0.00122  -0.00122   1.06995
   D56       -1.02322  -0.00111   0.00000   0.00151   0.00153  -1.02169
   D57        1.02310   0.00583   0.00000   0.00466   0.00466   1.02776
   D58       -1.07129  -0.00120   0.00000  -0.00383  -0.00387  -1.07517
   D59        3.11750   0.00106   0.00000  -0.00110  -0.00112   3.11638
   D60       -0.00122  -0.00197   0.00000  -0.00285  -0.00285  -0.00407
   D61        3.14043   0.00030   0.00000   0.00055   0.00055   3.14099
   D62        3.08688  -0.00654   0.00000  -0.00285  -0.00277   3.08412
   D63       -0.07279  -0.00488   0.00000  -0.00187  -0.00178  -0.07457
   D64        2.91481   0.00064   0.00000   0.00203   0.00205   2.91686
   D65       -0.23332  -0.00102   0.00000   0.00061   0.00068  -0.23264
   D66       -2.52771  -0.00600   0.00000  -0.00727  -0.00728  -2.53500
   D67        0.62828  -0.00699   0.00000  -0.00718  -0.00721   0.62106
   D68       -0.43669   0.00256   0.00000   0.00365   0.00361  -0.43308
   D69        2.71929   0.00157   0.00000   0.00374   0.00368   2.72297
   D70       -3.10260  -0.00109   0.00000  -0.00201  -0.00203  -3.10464
   D71        0.02910  -0.00029   0.00000  -0.00011  -0.00011   0.02900
   D72       -0.17106   0.00536   0.00000   0.00931   0.00944  -0.16162
   D73        2.96406   0.00351   0.00000   0.00620   0.00627   2.97033
   D74       -2.62155  -0.00962   0.00000  -0.01302  -0.01308  -2.63463
   D75        0.52727  -0.00769   0.00000  -0.00965  -0.00971   0.51757
   D76       -0.52716   0.00560   0.00000   0.00652   0.00658  -0.52058
   D77        2.62166   0.00753   0.00000   0.00989   0.00995   2.63162
   D78        0.68542  -0.01067   0.00000  -0.01262  -0.01271   0.67271
   D79       -1.48385  -0.01009   0.00000  -0.00990  -0.01002  -1.49388
   D80        2.87084   0.00104   0.00000   0.00141   0.00129   2.87213
   D81        2.60454  -0.00596   0.00000  -0.00855  -0.00847   2.59607
   D82        0.43527  -0.00538   0.00000  -0.00583  -0.00579   0.42948
   D83       -1.49322   0.00576   0.00000   0.00549   0.00553  -1.48770
   D84       -1.48006  -0.01514   0.00000  -0.01980  -0.01979  -1.49985
   D85        2.63385  -0.01456   0.00000  -0.01708  -0.01710   2.61675
   D86        0.70536  -0.00343   0.00000  -0.00577  -0.00579   0.69957
   D87        0.59744   0.00478   0.00000   0.00515   0.00517   0.60261
   D88       -2.53124   0.00034   0.00000   0.00141   0.00140  -2.52985
   D89        2.70181   0.00470   0.00000   0.00548   0.00551   2.70732
   D90       -0.42688   0.00026   0.00000   0.00174   0.00173  -0.42515
   D91       -1.58620  -0.00461   0.00000  -0.00529  -0.00526  -1.59146
   D92        1.56830  -0.00905   0.00000  -0.00904  -0.00904   1.55926
   D93        0.08574   0.00488   0.00000   0.00250   0.00251   0.08825
   D94       -3.06513   0.00889   0.00000   0.00813   0.00840  -3.05674
   D95       -3.05197  -0.00359   0.00000  -0.00664  -0.00699  -3.05896
   D96        0.08034   0.00042   0.00000  -0.00101  -0.00110   0.07924
   D97        0.00183  -0.00357   0.00000  -0.00361  -0.00362  -0.00178
   D98       -3.13975  -0.00353   0.00000  -0.00355  -0.00356   3.13987
   D99        3.13981   0.00450   0.00000   0.00504   0.00505  -3.13832
   D100      -0.00178   0.00454   0.00000   0.00510   0.00511   0.00334
   D101       0.50526   0.01516   0.00000   0.01473   0.01454   0.51980
   D102       2.59968   0.00764   0.00000   0.00891   0.00870   2.60838
   D103      -1.58305  -0.00085   0.00000  -0.00150  -0.00171  -1.58476
   D104      -2.62705   0.01012   0.00000   0.00826   0.00836  -2.61869
   D105      -0.53264   0.00259   0.00000   0.00245   0.00252  -0.53011
   D106       1.56782  -0.00589   0.00000  -0.00797  -0.00789   1.55993
[...]
 0.00000029,0.00003209,0.00000204,0.00001998,-0.02199696,-0.12933545,-0
 .12885375,0.00002054,-0.00000783,0.00002388,0.00000637,0.00003026,-0.0
 0000386,0.00000982,0.00000603,-0.00000587,-0.00000514,-0.00000117,-0.0
 0000117,-0.00026575,-0.00008572,0.00043370,0.00000311,0.00000210,-0.00
 000130,-0.00000092,-0.00000028,0.00000048,-0.00000206,0.00000175,-0.00
 000325,0.00000704,-0.00000812,-0.00001177,0.00000265,-0.00000262,0.000
 00030,0.00000101,0.00000024,-0.00000004,0.00000020,0.00000098,0.000001
 02,-0.00000179,0.00000049,0.00000005,-0.00684910,-0.02980399,-0.012216
 49,0.02675760,0.12475153,0.13388421,-0.00003816,-0.00004024,0.00000918
 ,-0.00000040,-0.00000244,0.00000096,-0.00015628,-0.00006873,-0.0000329
 8,0.00006002,0.00001831,0.00003348,0.00002188,-0.00001548,0.00004031,-
 0.00000486,-0.00000865,0.00002410,0.00019453,0.00026792,-0.00010390,-0
 .01396363,-0.00173361,-0.00276988,-0.00002334,0.00000221,0.00001806,-0
 .00001028,-0.00000180,0.00000570,0.00015077,0.00001984,0.00013351,0.00
 053008,0.00025136,-0.00006166,-0.00001449,0.00001350,0.00001325,0.0027
 7602,0.00320216,-0.00155238,-0.00001685,0.00000201,0.00003777,-0.00001
 094,0.00000421,0.00000289,-0.00013453,-0.00003331,-0.00006967,-0.00008
 747,-0.00013429,0.00000110,-0.00008353,0.00006275,-0.00016264,-0.00007
 878,-0.00015397,-0.00000434,-0.00017404,-0.00003864,-0.00006051,-0.000
 02914,0.00000795,0.00003481,-0.00003033,-0.00000684,-0.00005711,0.0001
 1111,-0.00006075,0.00007069,-0.00000555,-0.00000640,0.00002071,-0.0000
 0223,0.00002045,-0.00007421,-0.00077553,-0.00054899,0.00021594,-0.0004
 4534,-0.00010843,-0.00018980,0.00002229,-0.00001831,-0.00002618,0.0000
 3539,0.00029439,-0.00001783,0.00004787,-0.00004134,0.00002211,0.000006
 77,-0.00000279,-0.00000724,0.00001419,-0.00000281,-0.00003382,0.000012
 43,-0.00000067,-0.00001208,0.00010712,0.00015299,0.00000178,-0.3485198
 2,-0.05329555,-0.03458467,0.00002978,-0.00002067,0.00004878,-0.0000155
 9,0.00000694,0.00001128,0.00000715,-0.00000125,-0.00000423,-0.00004576
 ,-0.00001538,0.00000552,-0.00027522,0.00004515,-0.00013125,0.00000693,
 0.00000452,-0.00000095,-0.00000493,0.00000005,0.00000184,-0.00000565,0
 .00000302,-0.00000750,-0.00001698,-0.00002533,0.00001212,0.00000513,0.
 00000088,-0.00000046,0.00000140,-0.00000009,-0.00000048,-0.00000014,0.
 00000082,0.00000032,-0.00000182,0.00000066,-0.00000069,-0.01455331,-0.
 00433869,-0.00354309,-0.00201147,-0.00014614,0.00108012,0.37737235,-0.
 00003084,-0.00014097,-0.00002275,0.00001413,-0.00001663,0.00000583,0.0
 0016371,0.00008337,0.00002800,-0.00001730,-0.00009568,-0.00010878,-0.0
 0000425,0.00001335,-0.00004794,0.00004703,-0.00000365,-0.00004480,-0.0
 0018365,-0.00016090,0.00006423,0.03715309,0.00066132,0.00957707,0.0000
 3606,-0.00002285,-0.00000696,0.00001001,-0.00003365,0.00001910,-0.0001
 0086,-0.00002826,-0.00020733,-0.00045277,-0.00013594,-0.00016452,0.000
 03994,-0.00006107,-0.00002629,0.00050593,-0.00587206,0.00432059,0.0000
 5575,-0.00002610,-0.00003180,-0.00000641,-0.00002778,0.00001252,0.0000
 0004,0.00008420,-0.00003042,0.00004291,0.00010928,-0.00002770,0.000078
 88,-0.00002881,0.00026067,0.00003703,0.00015885,0.00002971,0.00014114,
 0.00013297,0.00016771,-0.00000660,-0.00001574,-0.00005109,0.00005171,0
 .00000740,0.00009248,-0.00016415,0.00007637,-0.00007814,-0.00002002,0.
 00003970,-0.00003300,-0.00004904,-0.00001006,0.00010324,0.00063785,0.0
 0049497,-0.00014874,0.00244313,0.00123266,0.00015026,-0.00006558,0.000
 08643,0.00001850,0.00007738,-0.00077511,0.00025422,0.00006184,0.000113
 04,-0.00001782,-0.00000363,0.00002076,0.00001866,-0.00003441,0.0000347
 1,0.00001145,-0.00000853,0.00003006,-0.00001810,-0.00000189,-0.0001606
 4,0.00004555,-0.06768500,-0.07168542,-0.01223681,-0.00004110,0.0000363
 3,-0.00008614,0.00001764,0.00000285,-0.00001606,-0.00002223,-0.0000024
 3,0.00000191,0.00006798,0.00002965,-0.00001384,0.00016192,0.00002060,0
 .00028748,-0.00000803,-0.00000941,-0.00000236,0.00001485,-0.00000428,-
 0.00000496,0.00000374,-0.00000088,0.00001023,0.00001410,0.00001978,-0.
 00000436,0.00001011,0.00001282,0.00000204,-0.00000051,0.00000283,0.000
 00228,0.00000404,-0.00000749,-0.00000226,0.00000238,-0.00000381,-0.000
 00250,0.00352954,0.00212949,-0.00074556,-0.03299565,-0.00177558,-0.002
 79337,0.05645917,0.07548760,-0.00004244,-0.00003519,0.00000774,-0.0000
 1626,-0.00000485,-0.00001046,-0.00014879,-0.00006779,-0.00002436,0.000
 04836,-0.00009452,-0.00003525,0.00000737,-0.00002112,0.00001780,-0.000
 00398,-0.00001638,0.00000688,0.00020664,0.00011260,-0.00006560,-0.0296
 5882,-0.00087032,-0.00695124,0.00004275,-0.00001148,-0.00007597,-0.000
 00053,0.00001728,-0.00004935,0.00002978,-0.00003764,-0.00000440,0.0004
 5087,0.00002431,-0.00005775,0.00000213,-0.00002220,-0.00002690,-0.0001
 4150,0.00553625,-0.00267142,-0.00001476,-0.00000534,-0.00012818,0.0000
 1246,-0.00003179,-0.00002704,-0.00005668,-0.00004208,0.00004064,-0.000
 05591,-0.00010460,0.00002710,-0.00000745,0.00002242,-0.00006593,0.0000
 3404,-0.00006556,0.00003687,-0.00005830,0.00013202,0.00005875,0.000003
 27,0.00001407,-0.00001602,0.00000064,0.00000197,-0.00000411,0.00004765
 ,-0.00004911,-0.00003465,0.00000510,0.00000689,0.00000154,-0.00000245,
 0.00003095,-0.00002828,-0.00065252,-0.00046296,0.00015043,-0.00185723,
 -0.00071904,-0.00004693,-0.00000331,0.00003498,0.00008675,-0.00004046,
 0.00058308,-0.00020759,-0.00003253,-0.00008386,0.00000157,0.00000180,0
 .00001640,0.00000860,-0.00001119,0.00000250,0.00014347,-0.00001061,0.0
 0000856,0.00008076,0.00003080,0.00014244,-0.00003718,-0.02482040,-0.00
 854388,-0.06483655,0.00000805,-0.00001322,0.00003103,-0.00002270,-0.00
 001389,0.00001259,0.00000155,0.00001110,0.00002528,-0.00003421,-0.0000
 1979,0.00001533,-0.00029141,0.00033080,-0.00015190,0.00000225,-0.00000
 185,0.00000209,-0.00000224,0.00000122,0.00000132,-0.00000134,0.0000107
 7,-0.00000425,-0.00001375,-0.00001698,0.00000662,0.00000521,0.00000403
 ,0.00000232,0.00000516,0.00000316,-0.00000236,0.00000612,-0.00000634,0
 .00000216,-0.00000197,-0.00000371,-0.00000286,0.03314576,0.00601012,0.
 00781974,-0.01775021,-0.00317979,-0.00034012,0.04165504,0.00147185,0.0
 6733646,-0.00000040,0.00000292,0.00000372,0.00000361,0.00000116,0.0000
 0070,-0.00154274,-0.00253200,-0.00001098,0.00000529,0.00003510,0.00001
 866,0.00000081,0.00001181,-0.00000517,0.00000480,0.00000644,-0.0000045
 0,-0.00020152,0.00012861,-0.00004211,-0.00022789,0.00010441,-0.0000913
 7,0.00000185,0.00000555,0.00000751,0.00000607,0.00000058,0.00000667,0.
 00002233,0.00002776,0.00000854,-0.00003873,0.00008877,0.00003096,0.000
 00268,0.00000256,0.00000224,0.00013119,0.00018369,0.00007564,0.0000065
 3,0.00000384,0.00001098,0.00000416,0.00000726,0.00000384,0.00077280,0.
 00215294,0.00032428,-0.16396196,0.15352339,-0.08047110,0.00000928,-0.0
 0000701,-0.00000016,-0.00000519,-0.00001419,0.00000301,-0.00002021,-0.
 00004230,-0.00003445,-0.00001022,-0.00000540,0.00000420,0.00000446,0.0
 0000365,0.00000138,-0.00000813,-0.00000142,-0.00000210,-0.00000211,-0.
 00000104,-0.00000048,-0.00000326,-0.00001196,0.00000905,0.00014870,-0.
 00031471,0.00000094,0.00018562,0.00001032,-0.00006570,-0.00000384,-0.0
 0000456,-0.00000676,-0.00074578,0.00025775,0.00049236,-0.00000126,-0.0
 0102198,0.00008010,-0.00000330,-0.00000383,-0.00000045,-0.00000468,-0.
 00000369,-0.00001293,-0.00000557,-0.00000455,-0.00001002,0.01756665,-0
 .02773421,0.01015808,0.00002866,-0.00017096,0.00002731,0.00000159,0.00
 000348,-0.00000130,0.00000296,-0.00000085,-0.00000080,-0.00000106,-0.0
 0000169,-0.00000086,0.00000303,0.00000238,-0.00000067,-0.00001290,-0.0
 0003691,-0.00001047,-0.00000057,-0.00000071,0.00000018,0.00000048,-0.0
 0000071,-0.00000080,-0.00000066,-0.00000728,0.00000135,-0.00027776,0.0
 0005736,-0.00036629,-0.00000482,-0.00000269,-0.00000058,-0.00000160,-0
 .00000102,0.00000024,-0.00000100,0.00000137,-0.00000070,0.00000103,0.0
 0000050,0.00000102,-0.00000824,-0.00000089,-0.00001750,-0.00003435,0.0
 0003536,0.00001323,0.00000647,0.00002600,-0.00000740,0.15297726,0.0000
 1179,-0.00000346,-0.00000197,0.00001170,-0.00000894,0.00000442,-0.0031
 5169,0.00021039,-0.00066550,0.00004627,-0.00001914,-0.00004571,0.00001
 578,0.00000433,-0.00000783,0.00003276,-0.00000349,-0.00002033,0.000141
 74,0.00003404,-0.00003512,0.00034278,-0.00000587,0.00008700,0.00001090
 ,-0.00000596,0.00000294,0.00000954,-0.00001218,0.00001080,0.00009048,0
 .00002873,0.00000044,0.00023762,0.00010241,-0.00010123,0.00001992,-0.0
 0002317,-0.00000827,-0.00015362,-0.00013936,-0.00001598,0.00002166,-0.
 00000984,0.00000101,0.00000406,-0.00000548,0.00000690,0.00459931,0.003
 71933,-0.00042700,0.14884592,-0.39358468,0.13950608,-0.00000994,0.0000
 1059,-0.00000508,-0.00003046,-0.00009634,0.00002014,-0.00009399,0.0000
 1335,0.00004375,-0.00003869,-0.00000701,0.00000196,0.00001499,0.000002
 51,0.00001002,-0.00002522,-0.00000533,-0.00000322,-0.00001735,0.000016
 95,-0.00000399,-0.00003858,-0.00000119,0.00002412,-0.00024940,-0.00009
 874,0.00012736,-0.00015547,0.00029136,-0.00006442,-0.00002830,0.000030
 24,-0.00000701,-0.00115756,-0.00104903,-0.00068228,0.00140226,0.000256
 65,0.00044756,-0.00000595,0.00000765,0.00000952,-0.00001284,0.00000958
 ,-0.00000696,-0.00000802,0.00000734,-0.00001225,0.01414233,-0.03135375
 ,0.01387081,-0.00008820,0.00019349,-0.00009999,0.00000490,0.00000026,0
 .00000346,-0.00001177,0.00000088,0.00000579,-0.00000132,0.00000415,-0.
 00000208,0.00000536,0.00000533,-0.00000126,-0.00002710,0.00000624,0.00
 001967,0.00000009,-0.00000280,-0.00000142,0.00000450,-0.00000262,-0.00
 000156,-0.00000257,-0.00000192,0.00000552,-0.00050391,0.00021773,0.000
 11922,-0.00000185,0.00000357,0.00000106,-0.00000160,0.00000114,0.00000
 169,-0.00000003,-0.00000220,-0.00000038,0.00000221,-0.00000081,0.00000
 012,-0.00001044,-0.00001196,0.00000221,-0.00000334,-0.00001960,-0.0000
 0135,0.00001866,-0.00001226,0.00000907,-0.15807744,0.41237701,-0.00000
 508,-0.00000309,-0.00001055,-0.00000723,0.00000457,-0.00000264,0.00014
 558,-0.00052788,0.00111033,-0.00002302,-0.00007079,-0.00008464,-0.0000
 2098,-0.00000278,-0.00002846,-0.00000971,-0.00000122,-0.00001471,-0.00
 003071,0.00000148,-0.00013806,-0.00017999,0.00003959,-0.00016265,0.000
 01065,-0.00000548,-0.00002901,-0.00000261,0.00000954,-0.00002299,-0.00
 006354,-0.00005215,-0.00005935,-0.00001047,-0.00004085,-0.00008455,0.0
 0000301,-0.00000538,-0.00001285,0.00015164,0.00003618,-0.00013177,-0.0
 0000132,0.00000179,-0.00005468,0.00000815,-0.00000965,-0.00001366,-0.0
 0028183,-0.00109110,-0.00238878,-0.07924412,0.14090041,-0.07401692,-0.
 00000802,0.00000123,0.00003179,0.00001950,0.00002951,0.00002809,0.0000
 6902,0.00010004,0.00012287,0.00002636,0.00000668,-0.00002352,0.0000010
 8,-0.00000603,0.00001228,-0.00000759,0.00000235,-0.00000863,0.00000940
 ,-0.00000206,-0.00000450,0.00001725,-0.00000168,0.00004466,-0.00003981
 ,-0.00001270,0.00015662,0.00010422,0.00005605,0.00021468,-0.00000643,0
 .00000603,0.00004105,0.00077240,-0.00037141,-0.00231246,-0.00052758,-0
 .00013999,0.00062159,-0.00000223,0.00000557,0.00000605,-0.00000157,-0.
 00000205,0.00005147,-0.00000398,0.00000059,0.00003458,-0.00088943,0.00
 245105,0.00606010,0.00002185,-0.00009258,0.00018066,-0.00000562,-0.000
 00054,-0.00000463,0.00000088,0.00000517,0.00000740,0.00000006,0.,0.000
 00299,0.00000150,-0.00000120,0.00000039,0.00000772,0.00001978,0.000057
 02,-0.00000132,-0.00000079,0.00000138,-0.00000075,0.00000205,0.0000016
 3,0.00000830,0.00000821,0.00000748,-0.00023252,0.00023099,0.00096462,-
 0.00000019,0.00000025,0.00000147,0.00000127,0.00000151,-0.00000023,0.0
 0000125,-0.00000177,0.00000171,-0.00000021,-0.00000110,-0.00000033,-0.
 00000916,-0.00001866,-0.00005079,-0.00001612,0.00000521,0.00001931,0.0
 0000420,0.00001658,-0.00001564,0.08027190,-0.14846596,0.07043927,0.000
 01019,0.00000023,0.00000310,0.00001308,-0.00000638,0.00000422,0.000993
 56,-0.00035900,0.00011826,0.00004693,0.00002174,-0.00000674,0.00001724
 ,0.00001418,-0.00000536,0.00003159,0.00000319,-0.00001742,0.00022788,0
 .00007732,0.00003032,0.00029535,0.00001267,0.00009715,0.00000766,0.000
 00210,0.00001355,0.00001254,-0.00000862,0.00001657,0.00010145,0.000054
 43,0.00001852,0.00020062,0.00007634,-0.00004969,0.00001593,-0.00001322
 ,-0.00000175,-0.00011096,-0.00010178,0.00000791,0.00002166,-0.00000369
 ,0.00001930,0.00000573,0.00000418,0.00001003,0.00124484,-0.00192706,0.
 00079693,-0.50382805,-0.00125584,-0.13381520,0.00000023,0.00000133,-0.
 00000882,-0.00004374,-0.00009516,0.00000937,-0.00010713,-0.00004000,-0
 .00001301,-0.00004417,-0.00001064,0.00000897,0.00001552,0.00000634,0.0
 0000671,-0.00002463,-0.00000655,-0.00000224,-0.00001657,0.00001211,-0.
 00000267,-0.00003623,-0.00001078,0.00001875,-0.00030320,-0.00002295,0.
 00004074,-0.00016057,-0.00004477,-0.00001337,-0.00002218,0.00001624,-0
 .00001770,0.00010504,-0.00025208,-0.00108349,-0.00035404,0.00095073,0.
 00001348,-0.00000695,0.00000101,0.00000534,-0.00001286,0.00000330,-0.0
 0002480,-0.00001002,0.00000046,-0.00002197,-0.01322764,0.00483541,-0.0
 0394224,-0.00006314,0.00010560,-0.00011205,0.00000601,0.00000271,0.000
 00273,-0.00000972,-0.00000188,0.00000216,-0.00000150,0.00000202,-0.000
 00284,0.00000625,0.00000631,-0.00000159,-0.00002402,-0.00002006,0.0000
 0153,-0.00000020,-0.00000273,-0.00000109,0.00000391,-0.00000299,-0.000
 00220,-0.00000431,-0.00000949,0.00000425,0.00018235,-0.00003890,0.0002
 7226,-0.00000572,-0.00000035,0.00000011,-0.00000280,-0.00000029,0.0000
 0150,-0.00000091,-0.00000011,-0.00000111,0.00000251,-0.00000010,0.0000
 0110,-0.00000936,-0.00000990,0.00000926,-0.00000986,-0.00000773,0.0000
 0470,0.00001669,-0.00000655,0.00000858,-0.00476857,-0.00613090,-0.0000
 2403,0.51962425,0.00000553,-0.00000249,-0.00000144,0.00000578,-0.00000
 382,0.00000210,0.00039710,-0.00078297,0.00055453,0.00001917,-0.0000115
 8,-0.00002675,0.00000706,0.00000164,-0.00000630,0.00001731,-0.00000149
 ,-0.00001233,0.00018190,-0.00000003,0.00002084,0.00026274,-0.00002143,
 0.00006643,0.00000743,-0.00000286,-0.00000062,0.00000609,-0.00000509,0
 .00000429,0.00003492,0.00000940,-0.00000587,0.00008915,-0.00001779,-0.
 00003175,0.00001149,-0.00001225,-0.00000550,0.00000110,-0.00002249,0.0
 0003644,0.00001234,-0.00000424,-0.00000421,0.00000420,-0.00000241,0.00
 000278,-0.00249331,-0.00568246,0.00080141,0.00443770,-0.08700398,0.022
 16364,-0.00000454,0.00000459,0.00000524,-0.00002376,-0.00003136,0.0000
 1624,-0.00003603,0.00000697,0.00002704,-0.00001731,-0.00000290,-0.0000
 0181,0.00000748,0.00000076,0.00000685,-0.00001477,-0.00000203,-0.00000
 308,-0.00000808,0.00000832,-0.00000275,-0.00002008,-0.00000087,0.00001
 689,-0.00029901,0.00011794,-0.00003717,-0.00029012,-0.00068909,0.00015
 438,-0.00001652,0.00001561,0.00000015,-0.00077369,0.00161599,0.0004345
 1,-0.00101973,-0.00065561,-0.00044089,-0.00000422,0.00000383,0.0000057
 0,-0.00000793,0.00000408,0.00000028,-0.00000597,0.00000295,-0.00000439
 ,-0.03831757,0.00689398,-0.01297449,-0.00004401,0.00008442,-0.00005451
 ,0.00000060,0.00000005,0.00000011,-0.00000462,0.00000250,0.00000225,-0
 .00000111,0.00000156,-0.00000086,0.00000314,0.00000292,-0.00000077,-0.
 00000928,-0.00001282,0.00002156,-0.00000032,-0.00000160,-0.00000055,0.
 00000212,-0.00000117,-0.00000071,-0.00000114,-0.00000032,0.00000375,0.
 00040431,-0.00011045,-0.00009916,-0.00000219,0.00000126,0.00000060,-0.
 00000104,0.00000059,0.00000092,-0.00000012,-0.00000107,-0.00000012,0.0
 0000138,-0.00000042,0.00000026,-0.00000675,-0.00000876,0.00000157,-0.0
 0000813,-0.00000939,0.00000348,0.00001172,-0.00000390,0.00000639,0.033
 31903,0.00893190,0.00698649,0.00418053,0.07739788,-0.00000033,-0.00000
 264,-0.00000839,-0.00000218,0.00000128,-0.00000066,-0.00008081,0.00035
 266,0.00079411,-0.00000386,-0.00005065,-0.00007668,-0.00001371,0.00000
 156,-0.00002733,0.00000032,-0.00000045,-0.00001792,0.00005296,-0.00002
 829,-0.00003320,0.00000979,0.00001076,-0.00003899,0.00000967,-0.000005
 42,-0.00001939,0.00000019,0.00000380,-0.00001337,-0.00001861,-0.000027
 88,-0.00004201,0.00006651,0.00001150,-0.00008335,0.00000674,-0.0000087
 0,-0.00001083,-0.00001651,-0.00002018,-0.00000609,0.00000428,-0.000000
 94,-0.00003796,0.00000664,-0.00000767,-0.00000787,0.00099678,0.0009961
 7,0.00009128,-0.13524835,0.02063891,-0.04887448,-0.00000905,0.00000574
 ,0.00001923,0.00000502,-0.00001118,0.00003032,0.00002262,0.00007038,0.
 00010148,0.00000796,0.00000265,-0.00001668,0.00000525,-0.00000369,0.00
 001121,-0.00001192,0.00000002,-0.00000633,0.00000252,0.00000240,-0.000
 00405,0.00000526,-0.00000462,0.00004439,-0.00008110,0.00000006,0.00004
 930,-0.00005290,0.00014860,-0.00003313,-0.00001092,0.00001065,0.000027
 15,-0.00085011,0.00067664,0.00398071,0.00052913,0.00004533,-0.00129721
 ,-0.00000302,0.00000521,0.00000636,-0.00000394,0.00000082,0.00003393,-
 0.00000450,0.00000201,0.00002089,0.00730200,-0.00136457,-0.00095051,-0
 .00001213,0.00000966,0.00005092,-0.00000220,-0.00000033,-0.00000160,-0
 .00000317,0.00000371,0.00000825,-0.00000001,0.00000120,0.00000131,0.00
 000240,0.00000057,-0.00000013,-0.00000217,0.00001219,0.00003678,-0.000
 00094,-0.00000116,0.00000067,0.00000063,0.00000088,0.00000093,0.000006
 77,0.00000468,0.00000853,0.00015903,-0.00018678,-0.00071395,-0.0000006
 7,0.00000081,0.00000123,0.00000037,0.00000124,0.00000031,0.00000080,-0
 .00000163,0.00000104,0.00000042,-0.00000092,-0.00000009,-0.00000231,-0
 .00000592,-0.00001598,-0.00000422,-0.00000509,0.00000325,0.00000402,0.
 00000223,-0.00000153,-0.01039245,-0.00365449,-0.00054446,0.13762400,-0
 .01763111,0.04756057||-0.00000231,-0.00000037,-0.00000064,0.00000338,-
 0.00000081,-0.00000310,0.00000053,0.00000213,0.00000117,-0.00000117,0.
 00000046,0.00000042,0.00000251,-0.00000047,0.00000059,-0.00000284,0.00
 000006,0.00000241,-0.00000330,-0.00000231,-0.00000003,-0.00000428,-0.0
 0000252,-0.00000019,0.00000065,-0.00000126,-0.00000259,0.00000006,0.00
 000125,-0.00000037,0.00000222,-0.00000191,-0.00000196,0.00000497,-0.00
 000402,-0.00000632,-0.00000282,0.00000229,-0.00000499,0.00000321,0.000
 00248,0.00000080,0.00000361,-0.00000200,-0.00000342,0.00000258,0.00000
 076,0.00000551,0.00000134,0.00000034,-0.00000387,0.00000051,0.00000148
 ,0.00000054,-0.00000229,0.00000038,0.00000426,0.00000393,0.00000243,-0
 .00000089,-0.00000014,-0.00000134,0.00000063,0.00000268,0.00000206,0.0
 0000156,-0.00000216,-0.00000104,0.00000261,0.00000064,0.00000134,-0.00
 000459,0.00000028,-0.00000151,-0.00000251,0.00000032,0.00000043,-0.000
 00242,-0.00000291,0.00000270,0.00000384,-0.00000181,-0.00000132,-0.000
 00103,-0.00000372,-0.00000182,0.00000639,-0.00000052,-0.00000026,0.000
 00561,-0.00000447,-0.00000189,-0.00000379,0.00000031,-0.00000025,-0.00
 000071,0.00000131,0.00000183,0.00000452,-0.00000131,-0.00000352,-0.000
 00046,0.00000281,-0.00000086,-0.00000059,0.00000074,0.00000181,0.00000
 001,0.00000033,0.00000040,-0.00000032,-0.00000013,-0.00000034,0.000000
 74,0.,0.00000161,0.00000001,0.00000015,-0.00000029,0.00000151,0.000001
 20,0.00000091,0.00000112,-0.00000095,0.00000101,-0.00000058,-0.0000003
 4,0.00000049,0.00000013,-0.00000083,-0.00000002,0.00000007,0.00000084,
 0.00000103,0.00000035,-0.00000079,-0.00000036,0.00000065,-0.00000057,0
 .00000146,-0.00000097,-0.00000032,0.00000067,0.00000041,0.00000019,0.0
 0000029,-0.00000026,-0.00000055,-0.00000053,-0.00000005,0.00000039,-0.
 00000019,-0.00000028,-0.00000009,-0.00000007,0.00000024,-0.00000033,-0
 .00000065,0.00000037,-0.00000070,-0.00000021,0.00000043|||@


 NATURE WILL TELL YOU A DIRECT LIE IF SHE CAN.

                                -- CHARLES DARWIN
 Job cpu time:  0 days  2 hours 25 minutes 34.0 seconds.
 File lengths (MBytes):  RWF=   1432 Int=      0 D2E=      0 Chk=     15 Scr=      1
 Normal termination of Gaussian 03 at Tue Jan 04 04:38:21 2022.
