 Entering Link 1 = C:\G03W\l1.exe PID=       588.
  
 Copyright (c) 1988,1990,1992,1993,1995,1998,2003,2004, Gaussian, Inc.
                  All Rights Reserved.
  
 This is the Gaussian(R) 03 program.  It is based on the
 the Gaussian(R) 98 system (copyright 1998, Gaussian, Inc.),
 the Gaussian(R) 94 system (copyright 1995, Gaussian, Inc.),
 the Gaussian 92(TM) system (copyright 1992, Gaussian, Inc.),
 the Gaussian 90(TM) system (copyright 1990, Gaussian, Inc.),
 the Gaussian 88(TM) system (copyright 1988, Gaussian, Inc.),
 the Gaussian 86(TM) system (copyright 1986, Carnegie Mellon
 University), and the Gaussian 82(TM) system (copyright 1983,
 Carnegie Mellon University). Gaussian is a federally registered
 trademark of Gaussian, Inc.
  
 This software contains proprietary and confidential information,
 including trade secrets, belonging to Gaussian, Inc.
  
 This software is provided under written license and may be
 used, copied, transmitted, or stored only in accord with that
 written license.
  
 The following legend is applicable only to US Government
 contracts under FAR:
  
                    RESTRICTED RIGHTS LEGEND
  
 Use, reproduction and disclosure by the US Government is
 subject to restrictions as set forth in subparagraphs (a)
 and (c) of the Commercial Computer Software - Restricted
 Rights clause in FAR 52.227-19.
  
 Gaussian, Inc.
 340 Quinnipiac St., Bldg. 40, Wallingford CT 06492
  
  
 ---------------------------------------------------------------
 Warning -- This program may not be used in any manner that
 competes with the business of Gaussian, Inc. or will provide
 assistance to any competitor of Gaussian, Inc.  The licensee
 of this program is prohibited from giving any competitor of
 Gaussian, Inc. access to this program.  By using this program,
 the user acknowledges that Gaussian, Inc. is engaged in the
 business of creating and licensing software in the field of
 computational chemistry and represents and warrants to the
 licensee that it is not a competitor of Gaussian, Inc. and that
 it will not use this program in any manner prohibited above.
 ---------------------------------------------------------------
  

 Cite this work as:
 Gaussian 03, Revision C.01,
 M. J. Frisch, G. W. Trucks, H. B. Schlegel, G. E. Scuseria, 
 M. A. Robb, J. R. Cheeseman, J. A. Montgomery, Jr., T. Vreven, 
 K. N. Kudin, J. C. Burant, J. M. Millam, S. S. Iyengar, J. Tomasi, 
 V. Barone, B. Mennucci, M. Cossi, G. Scalmani, N. Rega, 
 G. A. Petersson, H. Nakatsuji, M. Hada, M. Ehara, K. Toyota, 
 R. Fukuda, J. Hasegawa, M. Ishida, T. Nakajima, Y. Honda, O. Kitao, 
 H. Nakai, M. Klene, X. Li, J. E. Knox, H. P. Hratchian, J. B. Cross, 
 C. Adamo, J. Jaramillo, R. Gomperts, R. E. Stratmann, O. Yazyev, 
 A. J. Austin, R. Cammi, C. Pomelli, J. W. Ochterski, P. Y. Ayala, 
 K. Morokuma, G. A. Voth, P. Salvador, J. J. Dannenberg, 
 V. G. Zakrzewski, S. Dapprich, A. D. Daniels, M. C. Strain, 
 O. Farkas, D. K. Malick, A. D. Rabuck, K. Raghavachari, 
 J. B. Foresman, J. V. Ortiz, Q. Cui, A. G. Baboul, S. Clifford, 
 J. Cioslowski, B. B. Stefanov, G. Liu, A. Liashenko, P. Piskorz, 
 I. Komaromi, R. L. Martin, D. J. Fox, T. Keith, M. A. Al-Laham, 
 C. Y. Peng, A. Nanayakkara, M. Challacombe, P. M. W. Gill, 
 B. Johnson, W. Chen, M. W. Wong, C. Gonzalez, and J. A. Pople, 
 Gaussian, Inc., Wallingford CT, 2004.
 
 ******************************************
 Gaussian 03:  IA32W-G03RevC.01  3-Apr-2004
                11-Dec-2021 
 ******************************************
 %mem=512MB
 %chk=C:\Users\moaz\Documents\cefpodoxime\nmr_cefpodoxime.chk
 Default route:  MaxDisk=2000MB
 -------------------------------------
 # nmr=giao hf/6-31g geom=connectivity
 -------------------------------------
 1/38=1,57=2/1;
 2/17=6,18=5,40=1/2;
 3/5=1,6=6,11=9,16=1,25=1,30=1/1,2,8,3;
 4//1;
 5/5=2,38=5/2;
 8/6=1,10=90,11=11,27=262144000/1;
 10/13=100,45=16/2;
 6/7=2,8=2,9=2,10=2,28=1/1;
 99/9=1/99;
 ------------------
 nmr of cefpodoxime
 ------------------
 Symbolic Z-matrix:
 Charge =  0 Multiplicity = 1
 S                    -1.38408  -0.63747  -1.76746 
 S                     3.20023  -2.5523   -2.43312 
 O                    -0.49837   0.96017   1.55251 
 O                    -6.19736  -0.97589  -0.69435 
 O                    -3.71497   1.75537   2.29089 
 O                    -5.02559  -0.11917   1.84775 
 O                     1.92599   2.81034   0.053 
 O                     4.12734   2.54445   1.10457 
 N                    -2.28854   1.33032  -0.25818 
 N                     1.00084   1.15369  -1.35907 
 N                     4.27446   1.32694   0.51667 
 N                     4.71132  -1.38078  -0.72255 
 N                     5.52377  -3.65304  -1.17427 
 C                    -1.54237   1.09602  -1.52636 
 C                    -0.30143   1.66699  -0.91018 
 C                    -0.92597   1.25451   0.40617 
 C                    -3.38183   0.39059   0.13564 
 C                    -3.78938  -0.69325  -0.6145 
 C                    -3.0709   -1.11786  -1.91174 
 C                    -4.99848  -1.5164   -0.13271 
 C                    -4.09997   0.64688   1.47362 
 C                     2.06212   1.68378  -0.49098 
 C                     3.34053   0.86046  -0.24725 
 C                     3.50713  -0.51819  -0.91296 
 C                    -7.32009  -1.74025  -0.24698 
 C                     2.56875  -1.07444  -1.72075 
 C                     4.59966  -2.52374  -1.35202 
 C                     5.41224   3.14652   1.28194 
 H                    -1.90283   1.49457  -2.45163 
 H                    -0.2236    2.73219  -0.97487 
 H                    -3.51813  -0.62966  -2.7523 
 H                    -3.14167  -2.17763  -2.04126 
 H                     1.16603   1.4428   -2.30201 
 H                    -4.88503  -2.53336  -0.44546 
 H                    -5.05494  -1.47579   0.93502 
 H                    -4.47495   2.06475   2.7892 
 H                    -8.21716  -1.33582  -0.66722 
 H                    -7.37656  -1.69964   0.82076 
 H                    -7.20664  -2.75721  -0.55973 
 H                     1.59101  -0.6759   -1.89419 
 H                     6.43375  -3.30647  -0.94663 
 H                     5.57084  -4.18181  -2.02172 
 H                     5.88507   3.26517   0.32944 
 H                     5.29649   4.10441   1.74448 
 H                     6.01658   2.52046   1.90462 
 
                          Input orientation:                          
 ---------------------------------------------------------------------
 Center     Atomic     Atomic              Coordinates (Angstroms)
 Number     Number      Type              X           Y           Z
 ---------------------------------------------------------------------
    1         16             0       -1.384076   -0.637471   -1.767458
    2         16             0        3.200227   -2.552298   -2.433124
    3          8             0       -0.498370    0.960168    1.552510
    4          8             0       -6.197360   -0.975894   -0.694350
    5          8             0       -3.714966    1.755365    2.290891
    6          8             0       -5.025591   -0.119166    1.847746
    7          8             0        1.925989    2.810336    0.053000
    8          8             0        4.127343    2.544448    1.104566
    9          7             0       -2.288541    1.330320   -0.258180
   10          7             0        1.000842    1.153692   -1.359074
   11          7             0        4.274463    1.326937    0.516670
   12          7             0        4.711319   -1.380783   -0.722551
   13          7             0        5.523767   -3.653042   -1.174265
   14          6             0       -1.542374    1.096022   -1.526360
   15          6             0       -0.301433    1.666988   -0.910178
   16          6             0       -0.925970    1.254507    0.406170
   17          6             0       -3.381831    0.390590    0.135639
   18          6             0       -3.789380   -0.693246   -0.614497
   19          6             0       -3.070902   -1.117856   -1.911735
   20          6             0       -4.998475   -1.516395   -0.132715
   21          6             0       -4.099968    0.646879    1.473621
   22          6             0        2.062122    1.683782   -0.490979
   23          6             0        3.340535    0.860460   -0.247254
   24          6             0        3.507126   -0.518193   -0.912959
   25          6             0       -7.320091   -1.740247   -0.246980
   26          6             0        2.568748   -1.074444   -1.720745
   27          6             0        4.599660   -2.523737   -1.352024
   28          6             0        5.412238    3.146515    1.281939
   29          1             0       -1.902834    1.494572   -2.451631
   30          1             0       -0.223604    2.732191   -0.974868
   31          1             0       -3.518127   -0.629662   -2.752304
   32          1             0       -3.141670   -2.177627   -2.041260
   33          1             0        1.166026    1.442799   -2.302011
   34          1             0       -4.885026   -2.533360   -0.445463
   35          1             0       -5.054943   -1.475789    0.935022
   36          1             0       -4.474949    2.064747    2.789196
   37          1             0       -8.217158   -1.335816   -0.667224
   38          1             0       -7.376557   -1.699641    0.820757
   39          1             0       -7.206641   -2.757212   -0.559727
   40          1             0        1.591006   -0.675901   -1.894192
   41          1             0        6.433750   -3.306470   -0.946631
   42          1             0        5.570838   -4.181813   -2.021723
   43          1             0        5.885071    3.265173    0.329443
   44          1             0        5.296488    4.104410    1.744475
   45          1             0        6.016578    2.520462    1.904618
 ---------------------------------------------------------------------
                    Distance matrix (angstroms):
                    1          2          3          4          5
     1  S    0.000000
     2  S    5.012535   0.000000
     3  O    3.789342   6.473200   0.000000
     4  O    4.943055   9.686228   6.424578   0.000000
     5  O    5.256320   9.417652   3.394706   4.746970   0.000000
     6  O    5.157418   9.586973   4.663459   2.927333   2.329803
     7  O    5.114487   6.046680   3.398407   8.993490   6.159666
     8  O    6.982039   6.273086   4.909971  11.055695   7.970685
     9  N    2.639730   7.066234   2.572998   4.559356   2.951798
    10  N    3.010461   4.441311   3.280611   7.535987   5.993587
    11  N    6.410554   4.990363   4.897695  10.790212   8.195266
    12  N    6.228819   2.565523   6.147911  10.916226   9.482538
    13  N    7.560677   2.862726   8.061212  12.032549  11.252215
    14  C    1.757322   6.051836   3.253896   5.162748   4.441429
    15  C    2.686555   5.690638   2.569671   6.464778   4.680476
    16  C    2.917894   6.291173   1.258400   5.828670   3.403164
    17  C    2.944437   7.653928   3.262865   3.237803   2.572683
    18  C    2.667942   7.457753   4.273224   2.425826   3.800331
    19  C    1.759820   6.454187   4.789269   3.358112   5.131499
    20  C    4.063099   8.578094   5.405950   1.430000   4.269154
    21  C    4.419300   8.876386   3.616059   3.425280   1.430000
    22  C    4.346711   4.797038   3.354934   8.679532   6.412384
    23  C    5.184281   4.055198   4.241024   9.723349   7.551365
    24  C    4.966715   2.557865   4.930323   9.717732   8.221455
    25  C    6.226093  10.775701   7.554222   1.430000   5.626457
    26  C    3.977178   1.757925   4.925552   8.826542   7.974089
    27  C    6.287741   1.768617   6.823769  10.927213  10.035664
    28  C    8.355073   7.153401   6.307821  12.477288   9.287579
    29  H    2.298436   6.512966   4.276827   5.256823   5.083635
    30  H    3.650961   6.463354   3.098903   7.036643   4.879444
    31  H    2.350353   6.995333   5.493443   3.396077   5.582197
    32  H    2.352910   6.365029   5.454171   3.549024   5.879169
    33  H    3.334111   4.485082   4.226166   7.915435   6.709436
    34  H    4.195083   8.326012   5.953099   2.051796   5.220138
    35  H    4.634807   8.980596   5.203608   2.051796   3.751570
    36  H    6.133398  10.368127   4.308441   4.934297   0.960000
    37  H    6.956236  11.617010   8.353350   2.051796   6.210925
    38  H    6.613387  11.098790   7.410770   2.051796   5.244579
    39  H    6.313017  10.576129   7.954958   2.051796   6.378180
    40  H    2.978028   2.530001   4.349939   7.885953   7.181873
    41  H    8.301549   3.637872   8.514940  12.846796  11.794073
    42  H    7.810112   2.905920   8.720688  12.269080  11.835324
    43  H    8.512821   6.977329   6.896177  12.846008   9.914005
    44  H    8.913420   8.133782   6.595718  12.801012   9.328606
    45  H    8.844567   7.244358   6.708431  12.967629   9.769213
                    6          7          8          9         10
     6  O    0.000000
     7  O    7.754196   0.000000
     8  O    9.561556   2.454067   0.000000
     9  N    3.745313   4.477672   6.670438   0.000000
    10  N    6.944188   2.365232   4.216483   3.473212   0.000000
    11  N    9.505471   2.816166   1.360000   6.608587   3.776907
    12  N   10.149163   5.091662   4.368846   7.520888   4.538322
    13  N   11.528650   7.498363   6.749218   9.311566   6.602704
    14  C    4.999407   4.178851   6.416027   1.489947   2.549364
    15  C    5.754489   2.682605   4.944005   2.118264   1.470000
    16  C    4.557632   3.267874   5.261908   1.517797   2.615120
    17  C    2.427572   5.833948   7.871824   1.494479   4.693006
    18  C    2.814325   6.736920   8.724239   2.544464   5.187658
    19  C    4.353376   6.652804   8.621211   3.056125   4.695153
    20  C    2.423883   8.167209  10.064883   3.932336   6.680204
    21  C    1.258400   6.558267   8.451368   2.597594   5.856558
    22  C    7.678276   1.258400   2.748026   4.371201   1.470000
    23  C    8.679905   2.427573   2.298325   5.648662   2.606970
    24  C    8.977080   3.809485   3.719522   6.118455   3.045600
    25  C    3.504356  10.309597  12.297521   5.894489   8.879727
    26  C    8.445156   4.318661   4.848503   5.613844   2.748405
    27  C   10.424296   6.129841   5.651939   7.968536   5.145390
    28  C   10.951396   3.711770   1.430000   8.060553   5.514228
    29  H    5.553413   4.760704   7.078969   2.233154   3.121092
    30  H    6.257512   2.383982   4.825975   2.596700   2.034340
    31  H    4.867598   7.024367   9.132559   3.402069   5.053961
    32  H    4.786521   7.412616   9.221321   4.026524   5.359428
    33  H    7.615533   2.827328   4.646267   4.015462   1.000000
    34  H    3.332701   8.671418  10.459901   4.658844   7.005175
    35  H    1.635345   8.239068  10.025239   4.117154   6.989247
    36  H    2.441108   7.001048   8.778811   3.821814   6.929823
    37  H    4.241629  10.981473  13.060720   6.513379   9.573287
    38  H    3.013246  10.366615  12.265095   6.019358   9.114493
    39  H    4.184758  10.713448  12.622863   6.402074   9.126714
    40  H    7.621771   4.007197   5.078996   4.663940   1.995510
    41  H   12.218181   7.663843   6.615146   9.902128   7.041282
    42  H   11.990088   8.153500   7.556451   9.760304   7.056316
    43  H   11.523954   3.994700   2.051796   8.420029   5.582574
    44  H   11.153231   3.986976   2.051796   8.320990   6.065586
    45  H   11.353429   4.499492   2.051796   8.664244   6.138188
                   11         12         13         14         15
    11  N    0.000000
    12  N    3.009693   0.000000
    13  N    5.405572   2.455052   0.000000
    14  C    6.169512   6.774167   8.521028   0.000000
    15  C    4.805243   5.869565   7.893378   1.498538   0.000000
    16  C    5.202111   6.324381   8.257174   2.034637   1.514252
    17  C    7.722743   8.329065   9.867952   2.577494   3.494535
    18  C    8.389651   8.529142   9.788178   3.013637   4.221837
    19  C    8.113479   7.876944   8.991071   2.717750   4.053200
    20  C    9.720783   9.728638  10.787384   4.551000   5.727179
    21  C    8.456319   9.304480  10.868159   3.967733   4.599129
    22  C    2.457061   4.057515   6.397777   3.796033   2.400501
    23  C    1.293600   2.669855   5.098780   5.053157   3.788652
    24  C    2.457061   1.493451   3.736630   5.336609   4.390916
    25  C   12.017672  12.046169  13.018576   6.562259   7.830111
    26  C    3.698935   2.383452   3.959791   4.652959   4.050976
    27  C    4.292489   1.309599   1.470000   7.131454   6.463600
    28  C    2.278384   5.000569   7.230447   7.775454   6.296063
    29  H    6.855502   7.416495   9.126007   1.070000   2.229414
    30  H    4.942877   6.429128   8.593209   2.172636   1.070000
    31  H    8.674038   8.509281   9.663688   2.895605   4.360637
    32  H    8.592090   8.002712   8.832798   3.679626   4.911961
    33  H    4.197709   4.799626   6.799214   2.838542   2.034920
    34  H    9.986182   9.669284  10.494180   5.051146   6.234437
    35  H    9.750287   9.906384  11.004481   5.001075   5.989797
    36  H    9.069782  10.420727  12.180987   5.306830   5.591226
    37  H   12.827021  12.928674  13.944162   7.155746   8.469626
    38  H   12.041550  12.190169  13.199025   6.882033   8.024195
    39  H   12.233342  11.998285  12.776676   6.918505   8.208426
    40  H    4.126083   3.406751   4.984804   3.618436   3.168397
    41  H    5.317163   2.593309   1.000000   9.128887   8.372533
    42  H    6.202447   3.205058   1.000000   8.871229   8.362271
    43  H    2.527028   4.906046   7.088961   7.957145   6.508739
    44  H    3.204123   6.042846   8.291487   8.155906   6.657698
    45  H    2.527027   4.881130   6.916251   8.422493   6.969129
                   16         17         18         19         20
    16  C    0.000000
    17  C    2.617402   0.000000
    18  C    3.610350   1.379675   0.000000
    19  C    3.949877   2.561997   1.542508   0.000000
    20  C    4.955159   2.514388   1.540000   2.653165   0.000000
    21  C    3.403370   1.540000   2.500527   3.953973   2.840314
    22  C    3.149261   5.630419   6.317088   6.017945   7.760252
    23  C    4.334201   6.749636   7.306474   6.913086   8.671888
    24  C    4.953272   7.027316   7.304706   6.680389   8.599444
    25  C    7.090835   4.494080   3.700972   4.605907   2.335180
    26  C    4.707530   6.403271   6.464897   5.643050   7.744677
    27  C    6.920908   8.626160   8.618042   7.818395   9.727572
    28  C    6.672296   9.286806  10.149385  10.017389  11.494647
    29  H    3.029674   3.178077   3.423545   2.912156   4.901662
    30  H    2.141059   4.085427   4.957645   4.879312   6.446635
    31  H    4.499482   3.065895   2.155885   1.070000   3.136873
    32  H    4.762226   3.375250   2.158372   1.070000   2.743629
    33  H    3.427266   5.266145   5.653888   4.965967   7.173824
    34  H    5.545029   3.338677   2.148263   2.728489   1.070000
    35  H    4.978215   2.630910   2.148263   3.488346   1.070000
    36  H    4.350925   3.322510   4.434147   5.847996   4.651475
    37  H    7.811747   5.196678   4.474472   5.299082   3.267756
    38  H    7.106965   4.560295   3.992571   5.132607   2.568650
    39  H    7.514898   5.002136   3.992571   4.649704   2.568650
    40  H    3.918330   5.476013   5.530504   4.682843   6.872444
    41  H    8.763450  10.544439  10.557066   9.801014  11.600112
    42  H    8.812308  10.281603  10.087818   9.169493  11.062694
    43  H    7.102037   9.704445  10.495480  10.219749  11.896577
    44  H    6.973664   9.575700  10.542071  10.519181  11.878702
    45  H    7.214357   9.797740  10.622178  10.506388  11.907071
                   21         22         23         24         25
    21  C    0.000000
    22  C    6.550280   0.000000
    23  C    7.639902   1.540000   0.000000
    24  C    8.057359   2.667357   1.540000   0.000000
    25  C    4.362112   9.990466  10.973268  10.916298   0.000000
    26  C    7.592015   3.062157   2.551605   1.357382  10.020200
    27  C    9.680940   4.988358   3.776070   2.325644  11.996476
    28  C    9.837021   4.062770   3.443317   4.677298  13.723346
    29  H    4.577508   4.427283   5.723137   5.973810   6.683652
    30  H    5.036846   2.560831   4.090952   4.948452   8.419777
    31  H    4.452700   6.450178   7.452314   7.262906   4.686680
    32  H    4.609833   6.662830   7.380204   6.945018   4.568363
    33  H    6.528368   2.034920   3.047890   3.354952   9.293499
    34  H    3.796461   8.127067   8.900402   8.643360   2.568650
    35  H    2.389097   7.916374   8.794309   8.811415   2.568650
    36  H    1.970203   7.323795   8.470662   9.170117   5.638366
    37  H    5.046341  10.715066  11.772012  11.755328   1.070000
    38  H    4.082698  10.112214  11.070268  11.084049   1.070000
    39  H    5.037237  10.277992  11.154735  10.950926   1.070000
    40  H    6.743819   2.785509   2.851958   2.158520   9.124351
    41  H   11.508510   6.649914   5.236451   4.042370  13.860401
    42  H   11.360378   7.004247   5.792022   4.348607  13.239600
    43  H   10.385837   4.217680   3.548223   4.638107  14.133746
    44  H   10.016051   4.617123   4.279714   5.624254  14.046493
    45  H   10.297600   4.698578   3.814101   4.844534  14.165088
                   26         27         28         29         30
    26  C    0.000000
    27  C    2.522104   0.000000
    28  C    5.909149   6.304745   0.000000
    29  H    5.208559   7.722589   8.377275   0.000000
    30  H    4.779543   7.143592   6.085027   2.555845   0.000000
    31  H    6.189668   8.452619  10.501717   2.685507   5.031424
    32  H    5.824828   7.779655  10.609405   3.897200   5.810217
    33  H    2.939730   5.331578   5.811855   3.072942   2.314069
    34  H    7.701528   9.527918  11.886065   5.398372   7.052316
    35  H    8.082997   9.976980  11.447616   5.498022   6.685552
    36  H    8.933519  10.979637  10.059747   5.865759   5.717306
    37  H   10.840387  12.889955  14.479329   7.146041   8.974421
    38  H   10.283929  12.199586  13.683976   7.132543   8.604077
    39  H    9.986887  11.835159  14.052823   7.056014   8.892058
    40  H    1.070000   3.572177   6.269010   4.150736   3.969013
    41  H    4.529838   2.034920   6.902972   9.737231   8.988136
    42  H    4.331152   2.034920   8.040133   9.394783   9.081571
    43  H    5.833827   6.163691   1.070000   8.457001   6.269067
    44  H    6.802121   7.348892   1.070000   8.732056   6.304699
    45  H    6.160693   6.169061   1.070000   9.096507   6.875764
                   31         32         33         34         35
    31  H    0.000000
    32  H    1.744562   0.000000
    33  H    5.141902   5.633092   0.000000
    34  H    3.288464   2.390064   7.474748   0.000000
    35  H    4.083394   3.607138   7.595854   1.747303   0.000000
    36  H    6.235670   6.565720   7.624160   5.636823   4.038533
    37  H    5.189134   5.325148   9.921562   3.547731   3.547731
    38  H    5.366480   5.133604   9.623011   2.916527   2.335179
    39  H    4.789467   4.365186   9.527707   2.335179   2.916527
    40  H    5.180901   4.967397   2.199049   6.891151   7.267249
    41  H   10.462582   9.703668   7.220909  11.356213  11.784824
    42  H    9.785746   8.940075   7.149629  10.701733  11.356590
    43  H   10.634239  10.803997   5.702191  12.256364  11.938481
    44  H   10.969499  11.180264   6.365449  12.349861  11.787534
    45  H   11.068912  11.023407   6.510372  12.243731  11.810533
                   36         37         38         39         40
    36  H    0.000000
    37  H    6.124933   0.000000
    38  H    5.144385   1.747303   0.000000
    39  H    6.475239   1.747303   1.747303   0.000000
    40  H    8.138862   9.906615   9.425295   9.138448   0.000000
    41  H   12.720302  14.785488  14.015354  13.656927   5.591953
    42  H   12.770368  14.143664  13.486138  12.939509   5.305351
    43  H   10.715476  14.867256  14.169035  14.437890   6.238238
    44  H   10.036566  14.765873  13.969479  14.447126   7.058462
    45  H   10.538609  14.969452  14.084036  14.449234   6.650818
                   41         42         43         44         45
    41  H    0.000000
    42  H    1.632993   0.000000
    43  H    6.716837   7.815646   0.000000
    44  H    7.965962   9.106098   1.747303   0.000000
    45  H    6.500522   7.780445   1.747303   1.747303   0.000000
 Stoichiometry    C15H17N5O6S2
 Framework group  C1[X(C15H17N5O6S2)]
 Deg. of freedom   129
 Full point group                 C1      NOp   1
 Largest Abelian subgroup         C1      NOp   1
 Largest concise Abelian subgroup C1      NOp   1
                         Standard orientation:                         
 ---------------------------------------------------------------------
 Center     Atomic     Atomic              Coordinates (Angstroms)
 Number     Number      Type              X           Y           Z
 ---------------------------------------------------------------------
    1         16             0        1.218606   -1.286119    0.944166
    2         16             0       -3.363396   -3.170643    0.183028
    3          8             0        0.560614    1.801613   -1.151560
    4          8             0        6.106541   -1.135534    0.223601
    5          8             0        3.807856    2.791046   -1.129819
    6          8             0        5.118220    0.924532   -1.606324
    7          8             0       -2.010090    2.680061    0.890248
    8          8             0       -4.117340    3.036960   -0.315806
    9          7             0        2.196987    1.155888    0.726109
   10          7             0       -1.163579    0.514718    1.325024
   11          7             0       -4.284689    1.693524   -0.445318
   12          7             0       -4.760886   -1.256986   -0.800254
   13          7             0       -5.559284   -3.422858   -1.636221
   14          6             0        1.359643    0.323563    1.634972
   15          6             0        0.158822    1.156337    1.303108
   16          6             0        0.891893    1.459972    0.013390
   17          6             0        3.336522    0.524995   -0.006628
   18          6             0        3.706735   -0.798612    0.113825
   19          6             0        2.898629   -1.809973    0.952540
   20          6             0        4.966141   -1.286945   -0.625789
   21          6             0        4.150892    1.412476   -0.966201
   22          6             0       -2.164941    1.436988    0.770414
   23          6             0       -3.403489    0.881929    0.042740
   24          6             0       -3.592986   -0.639315   -0.103914
   25          6             0        7.275988   -1.588986   -0.463183
   26          6             0       -2.708917   -1.550570    0.376214
   27          6             0       -4.675041   -2.563276   -0.836138
   28          6             0       -5.396647    3.673427   -0.259398
   29          1             0        1.639016    0.185840    2.658634
   30          1             0        0.054440    2.040674    1.896364
   31          1             0        3.269224   -1.829316    1.956126
   32          1             0        2.980796   -2.788631    0.527832
   33          1             0       -1.407289    0.285511    2.267399
   34          1             0        4.849596   -2.318273   -0.885941
   35          1             0        5.104422   -0.708207   -1.515081
   36          1             0        4.597717    3.294585   -1.339982
   37          1             0        8.129295   -1.475692    0.172374
   38          1             0        7.414268   -1.010248   -1.352475
   39          1             0        7.159443   -2.620314   -0.723335
   40          1             0       -1.755932   -1.318129    0.803636
   41          1             0       -6.455765   -2.988637   -1.724389
   42          1             0       -5.661127   -4.308975   -1.184087
   43          1             0       -5.944270    3.299619    0.580410
   44          1             0       -5.264983    4.730395   -0.157503
   45          1             0       -5.937934    3.466504   -1.158893
 ---------------------------------------------------------------------
 Rotational constants (GHZ):      0.2487452      0.0777503      0.0644145
 Standard basis: 6-31G (6D, 7F)
 There are   294 symmetry adapted basis functions of A   symmetry.
 Integral buffers will be    262144 words long.
 Raffenetti 1 integral format.
 Two-electron integral symmetry is turned on.
   294 basis functions,   732 primitive gaussians,   294 cartesian basis functions
   111 alpha electrons      111 beta electrons
       nuclear repulsion energy      2970.3664889422 Hartrees.
 NAtoms=   45 NActive=   45 NUniq=   45 SFac= 1.00D+00 NAtFMM=   60 Big=F
 One-electron integrals computed using PRISM.
 NBasis=   294 RedAO= T  NBF=   294
 NBsUse=   294 1.00D-06 NBFU=   294
 Harris functional with IExCor=  205 diagonalized for initial guess.
 ExpMin= 1.17D-01 ExpMax= 2.19D+04 ExpMxC= 3.30D+03 IAcc=1 IRadAn=         1 AccDes= 1.00D-06
 HarFok:  IExCor= 205 AccDes= 1.00D-06 IRadAn=         1 IDoV=1
 ScaDFX=  1.000000  1.000000  1.000000  1.000000
 Initial guess orbital symmetries:
       Occupied  (A) (A) (A) (A) (A) (A) (A) (A) (A) (A) (A) (A)
                 (A) (A) (A) (A) (A) (A) (A) (A) (A) (A) (A) (A)
                 (A) (A) (A) (A) (A) (A) (A) (A) (A) (A) (A) (A)
                 (A) (A) (A) (A) (A) (A) (A) (A) (A) (A) (A) (A)
                 (A) (A) (A) (A) (A) (A) (A) (A) (A) (A) (A) (A)
                 (A) (A) (A) (A) (A) (A) (A) (A) (A) (A) (A) (A)
                 (A) (A) (A) (A) (A) (A) (A) (A) (A) (A) (A) (A)
                 (A) (A) (A) (A) (A) (A) (A) (A) (A) (A) (A) (A)
                 (A) (A) (A) (A) (A) (A) (A) (A) (A) (A) (A) (A)
                 (A) (A) (A)
       Virtual   (A) (A) (A) (A) (A) (A) (A) (A) (A) (A) (A) (A)
                 (A) (A) (A) (A) (A) (A) (A) (A) (A) (A) (A) (A)
                 (A) (A) (A) (A) (A) (A) (A) (A) (A) (A) (A) (A)
                 (A) (A) (A) (A) (A) (A) (A) (A) (A) (A) (A) (A)
                 (A) (A) (A) (A) (A) (A) (A) (A) (A) (A) (A) (A)
                 (A) (A) (A) (A) (A) (A) (A) (A) (A) (A) (A) (A)
                 (A) (A) (A) (A) (A) (A) (A) (A) (A) (A) (A) (A)
                 (A) (A) (A) (A) (A) (A) (A) (A) (A) (A) (A) (A)
                 (A) (A) (A) (A) (A) (A) (A) (A) (A) (A) (A) (A)
                 (A) (A) (A) (A) (A) (A) (A) (A) (A) (A) (A) (A)
                 (A) (A) (A) (A) (A) (A) (A) (A) (A) (A) (A) (A)
                 (A) (A) (A) (A) (A) (A) (A) (A) (A) (A) (A) (A)
                 (A) (A) (A) (A) (A) (A) (A) (A) (A) (A) (A) (A)
                 (A) (A) (A) (A) (A) (A) (A) (A) (A) (A) (A) (A)
                 (A) (A) (A) (A) (A) (A) (A) (A) (A) (A) (A) (A)
                 (A) (A) (A)
 The electronic state of the initial guess is 1-A.
 Requested convergence on RMS density matrix=1.00D-08 within 128 cycles.
 Requested convergence on MAX density matrix=1.00D-06.
 Requested convergence on             energy=1.00D-06.
 No special actions if energy rises.
 Integral accuracy reduced to 1.0D-05 until final iterations.
 Initial convergence to 1.0D-05 achieved.  Increase integral accuracy.
 SCF Done:  E(RHF) =  -2093.35124967     A.U. after   18 cycles
             Convg  =    0.9523D-08             -V/T =  2.0001
             S**2   =   0.0000
 Range of M.O.s used for correlation:     1   294
 NBasis=   294 NAE=   111 NBE=   111 NFC=     0 NFV=     0
 NROrb=    294 NOA=   111 NOB=   111 NVA=   183 NVB=   183
          Differentiating once with respect to magnetic field using GIAOs.
          Electric field/nuclear overlap derivatives assumed to be zero.
 Symmetry not used in FoFDir.
 MinBra= 0 MaxBra= 1 Meth= 1.
 IRaf=       0 NMat=   1 IRICut=       1 DoRegI=T DoRafI=F ISym2E= 0 JSym2E=0.
          There are   3 degrees of freedom in the 1st order CPHF.
     3 vectors were produced by pass  0.
 AX will form   3 AO Fock derivatives at one time.
     3 vectors were produced by pass  1.
     3 vectors were produced by pass  2.
     3 vectors were produced by pass  3.
     3 vectors were produced by pass  4.
     3 vectors were produced by pass  5.
     3 vectors were produced by pass  6.
     3 vectors were produced by pass  7.
     3 vectors were produced by pass  8.
     3 vectors were produced by pass  9.
 Inv2:  IOpt= 1 Iter= 1 AM= 1.10D-15 Conv= 1.00D-12.
 Inverted reduced A of dimension   30 with in-core refinement.
 Calculating GIAO nuclear magnetic shielding tensors.
 SCF GIAO Magnetic shielding tensor (ppm):
  1  S    Isotropic =   689.0197   Anisotropy =   118.4676
   XX=   618.0789   YX=   -59.2050   ZX=    62.1233
   XY=   -13.7814   YY=   729.1461   ZY=    86.2705
   XZ=   -12.9193   YZ=    -1.5630   ZZ=   719.8342
   Eigenvalues:   596.1564   702.9046   767.9981
  2  S    Isotropic =   400.9482   Anisotropy =   247.7795
   XX=   502.9993   YX=    33.1368   ZX=    88.0562
   XY=   -47.2604   YY=   281.5625   ZY=    19.8049
   XZ=   103.5707   YZ=   -51.0655   ZZ=   418.2827
   Eigenvalues:   279.7102   356.9998   566.1345
  3  O    Isotropic =  -286.7274   Anisotropy =   870.6405
   XX=  -582.9525   YX=    68.8566   ZX=    -6.7201
   XY=    91.3620   YY=   235.2297   ZY=   243.2914
   XZ=   -34.1923   YZ=   166.4530   ZZ=  -512.4593
   Eigenvalues:  -618.2769  -535.6048   293.6996
  4  O    Isotropic =   348.4356   Anisotropy =    40.5234
   XX=   371.4491   YX=    -7.3967   ZX=    14.3211
   XY=   -18.9406   YY=   327.6669   ZY=    28.7780
   XZ=     6.6713   YZ=    34.7424   ZZ=   346.1906
   Eigenvalues:   299.8862   369.9694   375.4512
  5  O    Isotropic =   135.1122   Anisotropy =   215.5975
   XX=    13.8951   YX=   -94.4316   ZX=    88.4970
   XY=    -0.8685   YY=   268.6865   ZY=   -14.5964
   XZ=   128.9229   YZ=    27.0909   ZZ=   122.7548
   Eigenvalues:   -59.1363   185.6289   278.8438
  6  O    Isotropic =  -205.0830   Anisotropy =   712.9806
   XX=  -246.7875   YX=   133.6893   ZX=   362.8320
   XY=   120.3689   YY=  -390.9112   ZY=   140.8524
   XZ=   255.2384   YZ=   105.9467   ZZ=    22.4498
   Eigenvalues:  -480.7003  -404.7861   270.2374
  7  O    Isotropic =  -417.7052   Anisotropy =  1147.5002
   XX=  -418.4863   YX=  -140.6980   ZX=  -449.0249
   XY=   -48.0826   YY=  -923.7959   ZY=   -11.6455
   XZ=  -435.1028   YZ=    24.3166   ZZ=    89.1666
   Eigenvalues:  -948.4444  -651.9661   347.2950
  8  O    Isotropic =   113.5082   Anisotropy =   212.3439
   XX=   -38.1405   YX=   143.5525   ZX=   -74.1379
   XY=   152.0837   YY=   174.2313   ZY=    19.6616
   XZ=  -159.5804   YZ=    88.0300   ZZ=   204.4338
   Eigenvalues:  -159.3911   244.8449   255.0708
  9  N    Isotropic =   114.3507   Anisotropy =   150.4454
   XX=   146.2509   YX=   -18.7639   ZX=    34.0961
   XY=   -37.7402   YY=   133.3628   ZY=    41.7587
   XZ=   160.4533   YZ=   -21.2484   ZZ=    63.4383
   Eigenvalues:    -5.1281   133.5325   214.6476
 10  N    Isotropic =   183.7509   Anisotropy =    63.3157
   XX=   179.8557   YX=   -37.4764   ZX=    23.6817
   XY=   -47.5468   YY=   168.3999   ZY=     2.3200
   XZ=    -4.6688   YZ=   -24.0683   ZZ=   202.9972
   Eigenvalues:   131.1784   194.1130   225.9614
 11  N    Isotropic =  -257.5526   Anisotropy =   565.3653
   XX=  -113.4652   YX=   110.8250   ZX=  -139.7487
   XY=    72.5143   YY=  -707.8173   ZY=    16.7629
   XZ=  -113.5550   YZ=     6.7417   ZZ=    48.6246
   Eigenvalues:  -722.8798  -169.1357   119.3575
 12  N    Isotropic =   -86.8570   Anisotropy =   399.9089
   XX=   -96.3110   YX=  -150.8932   ZX=  -179.3828
   XY=  -153.0985   YY=  -217.8402   ZY=  -113.7969
   XZ=  -192.6951   YZ=   -59.4598   ZZ=    53.5803
   Eigenvalues:  -394.4957   -45.8241   179.7490
 13  N    Isotropic =   199.7087   Anisotropy =   102.8128
   XX=   225.8371   YX=    43.0301   ZX=    10.8072
   XY=    61.3593   YY=   157.3741   ZY=    38.5153
   XZ=    16.5315   YZ=    22.4074   ZZ=   215.9147
   Eigenvalues:   124.3973   206.4781   268.2506
 14  C    Isotropic =   163.3864   Anisotropy =    38.8189
   XX=   183.5789   YX=    16.7509   ZX=   -12.3327
   XY=    10.8198   YY=   154.8466   ZY=     8.1512
   XZ=    -0.0830   YZ=    10.8433   ZZ=   151.7337
   Eigenvalues:   139.2802   161.6133   189.2657
 15  C    Isotropic =   151.1852   Anisotropy =    32.2769
   XX=   163.4201   YX=     0.6279   ZX=    -1.1704
   XY=     8.0029   YY=   149.8335   ZY=   -12.0500
   XZ=   -10.7220   YZ=   -31.2698   ZZ=   140.3019
   Eigenvalues:   122.7953   158.0571   172.7031
 16  C    Isotropic =    -7.7694   Anisotropy =   137.3381
   XX=  -156.5564   YX=     2.4993   ZX=    62.1660
   XY=    11.1242   YY=    81.9215   ZY=    11.9783
   XZ=    37.6218   YZ=    -2.6374   ZZ=    51.3267
   Eigenvalues:  -168.0369    60.9394    83.7893
 17  C    Isotropic =    62.5436   Anisotropy =   115.8893
   XX=    34.5079   YX=    -7.6600   ZX=    89.6158
   XY=    -3.3932   YY=    94.1379   ZY=    19.4675
   XZ=    88.6856   YZ=    21.0129   ZZ=    58.9849
   Eigenvalues:   -45.4383    93.2659   139.8031
 18  C    Isotropic =    40.6749   Anisotropy =   211.8657
   XX=    19.0553   YX=     9.4346   ZX=   119.1060
   XY=    14.5574   YY=    19.0408   ZY=    29.0926
   XZ=   114.8569   YZ=    48.7997   ZZ=    83.9286
   Eigenvalues:   -72.2101    12.3161   181.9187
 19  C    Isotropic =   184.1724   Anisotropy =    22.3760
   XX=   189.9767   YX=    11.2263   ZX=    -5.3074
   XY=    10.9736   YY=   183.5292   ZY=     0.9840
   XZ=    -5.5554   YZ=     0.5226   ZZ=   179.0115
   Eigenvalues:   172.6211   180.8065   199.0898
 20  C    Isotropic =   140.6599   Anisotropy =    56.9895
   XX=   172.3610   YX=     0.9545   ZX=    11.8595
   XY=     1.6288   YY=   120.2054   ZY=     5.6434
   XZ=    22.7719   YZ=     6.4562   ZZ=   129.4133
   Eigenvalues:   116.1481   127.1787   178.6529
 21  C    Isotropic =     1.4335   Anisotropy =   140.5608
   XX=    57.5194   YX=    -4.3274   ZX=    33.2787
   XY=   -18.7904   YY=  -107.9415   ZY=    75.1346
   XZ=    28.9187   YZ=    52.3329   ZZ=    54.7225
   Eigenvalues:  -132.3170    41.4767    95.1407
 22  C    Isotropic =     4.0183   Anisotropy =   155.6168
   XX=   -78.9782   YX=    21.2632   ZX=  -110.0059
   XY=    37.7983   YY=    47.2173   ZY=    24.5583
   XZ=  -108.0507   YZ=    17.9910   ZZ=    43.8157
   Eigenvalues:  -149.3865    53.6786   107.7628
 23  C    Isotropic =    50.7718   Anisotropy =   130.5630
   XX=    86.6178   YX=   -20.6189   ZX=   -30.6288
   XY=  -104.3448   YY=   -51.8343   ZY=   -67.4730
   XZ=   -33.5447   YZ=   -19.6706   ZZ=   117.5320
   Eigenvalues:   -89.1066   103.6082   137.8138
 24  C    Isotropic =    45.6557   Anisotropy =   105.0417
   XX=    49.3696   YX=   -78.6486   ZX=   -36.7823
   XY=   -37.3263   YY=    -1.9397   ZY=   -26.1468
   XZ=   -43.2442   YZ=   -20.6788   ZZ=    89.5373
   Eigenvalues:   -52.0973    73.3809   115.6836
 25  C    Isotropic =   155.7467   Anisotropy =    78.8342
   XX=   187.3860   YX=   -19.8258   ZX=   -24.7979
   XY=   -22.2267   YY=   136.5161   ZY=     9.8495
   XZ=   -30.4969   YZ=    10.4496   ZZ=   143.3381
   Eigenvalues:   128.9224   130.0149   208.3029
 26  C    Isotropic =    69.6490   Anisotropy =   137.5301
   XX=    35.9686   YX=   -33.0711   ZX=   -56.8110
   XY=   -46.8059   YY=    33.5279   ZY=   -15.0571
   XZ=   -46.5487   YZ=   -34.2310   ZZ=   139.4504
   Eigenvalues:   -23.3541    70.9653   161.3357
 27  C    Isotropic =    14.5400   Anisotropy =   157.3340
   XX=    -6.5218   YX=    21.7571   ZX=   -97.1651
   XY=   -48.6443   YY=    16.5329   ZY=   -42.9355
   XZ=  -102.9175   YZ=   -29.2220   ZZ=    33.6088
   Eigenvalues:   -98.2780    22.4686   119.4293
 28  C    Isotropic =   151.1795   Anisotropy =    77.8550
   XX=   184.9751   YX=   -36.5970   ZX=    -3.0104
   XY=   -26.4397   YY=   147.3725   ZY=     2.3217
   XZ=    -3.8622   YZ=     2.3297   ZZ=   121.1910
   Eigenvalues:   120.9696   129.4861   203.0828
 29  H    Isotropic =    29.0304   Anisotropy =    10.4567
   XX=    24.8433   YX=    -0.5613   ZX=     1.3377
   XY=     0.1196   YY=    27.0081   ZY=     2.7086
   XZ=     1.8199   YZ=     1.7540   ZZ=    35.2397
   Eigenvalues:    24.4675    26.6221    36.0015
 30  H    Isotropic =    27.5063   Anisotropy =     7.6605
   XX=    29.0388   YX=    -0.5750   ZX=     0.3555
   XY=    -1.3612   YY=    30.3512   ZY=     5.0906
   XZ=    -0.1100   YZ=     3.6844   ZZ=    23.1289
   Eigenvalues:    21.0230    28.8826    32.6133
 31  H    Isotropic =    30.3518   Anisotropy =    10.4858
   XX=    31.8656   YX=    -2.8628   ZX=     3.6144
   XY=    -2.1807   YY=    25.7246   ZY=    -2.7022
   XZ=     2.6026   YZ=    -3.8358   ZZ=    33.4653
   Eigenvalues:    24.2574    29.4557    37.3424
 32  H    Isotropic =    31.2556   Anisotropy =    11.4505
   XX=    31.3881   YX=    -1.5977   ZX=    -2.5136
   XY=    -3.5895   YY=    36.8774   ZY=     2.3087
   XZ=    -2.5259   YZ=     3.4283   ZZ=    25.5012
   Eigenvalues:    24.2817    30.5957    38.8892
 33  H    Isotropic =    31.8679   Anisotropy =     8.7041
   XX=    32.8178   YX=     1.1096   ZX=    -1.7516
   XY=     0.2235   YY=    27.0882   ZY=    -2.4031
   XZ=    -2.4134   YZ=    -3.7545   ZZ=    35.6978
   Eigenvalues:    26.1005    31.8326    37.6707
 34  H    Isotropic =    31.2970   Anisotropy =     4.4602
   XX=    33.7366   YX=     1.7491   ZX=    -0.0151
   XY=     0.2978   YY=    31.8962   ZY=     1.7068
   XZ=    -1.2459   YZ=     3.6580   ZZ=    28.2582
   Eigenvalues:    26.6827    32.9378    34.2705
 35  H    Isotropic =    24.2461   Anisotropy =    10.4898
   XX=    21.3171   YX=    -1.5835   ZX=    -1.9886
   XY=    -2.4773   YY=    28.6598   ZY=    -4.6479
   XZ=    -3.2417   YZ=    -4.6332   ZZ=    22.7613
   Eigenvalues:    17.4404    24.0585    31.2393
 36  H    Isotropic =    27.3294   Anisotropy =    13.1248
   XX=    26.2532   YX=     5.0962   ZX=    -1.4827
   XY=     7.0276   YY=    31.9222   ZY=    -3.1216
   XZ=     0.2624   YZ=    -0.6437   ZZ=    23.8127
   Eigenvalues:    22.2111    23.6978    36.0793
 37  H    Isotropic =    30.1779   Anisotropy =    11.7796
   XX=    37.5803   YX=    -0.9728   ZX=     2.8742
   XY=    -1.8878   YY=    25.8465   ZY=     0.1489
   XZ=     0.7017   YZ=     0.3756   ZZ=    27.1070
   Eigenvalues:    25.5085    26.9943    38.0310
 38  H    Isotropic =    30.4913   Anisotropy =     9.8944
   XX=    32.8832   YX=     0.1334   ZX=    -5.7826
   XY=    -0.8327   YY=    27.7913   ZY=    -1.2391
   XZ=    -4.1964   YZ=    -3.2785   ZZ=    30.7995
   Eigenvalues:    25.1833    29.2031    37.0876
 39  H    Isotropic =    31.1350   Anisotropy =    10.2090
   XX=    32.1887   YX=    -4.8047   ZX=    -2.9458
   XY=    -2.9146   YY=    33.6763   ZY=     1.6754
   XZ=    -2.1493   YZ=     2.7879   ZZ=    27.5399
   Eigenvalues:    26.3636    29.1003    37.9409
 40  H    Isotropic =    22.4874   Anisotropy =    12.7746
   XX=    25.7442   YX=     5.1663   ZX=     3.6101
   XY=     2.8937   YY=    25.6308   ZY=     2.0610
   XZ=     4.3350   YZ=     2.2877   ZZ=    16.0873
   Eigenvalues:    14.6128    21.8456    31.0038
 41  H    Isotropic =    29.6515   Anisotropy =    14.1696
   XX=    37.2777   YX=    -2.6920   ZX=     5.5163
   XY=    -0.1354   YY=    27.2081   ZY=    -0.6279
   XZ=     4.1295   YZ=    -0.8161   ZZ=    24.4685
   Eigenvalues:    22.8424    27.0141    39.0978
 42  H    Isotropic =    30.6499   Anisotropy =    11.7659
   XX=    29.1901   YX=     5.2718   ZX=     1.8594
   XY=     2.5178   YY=    36.7140   ZY=    -1.4177
   XZ=     2.5632   YZ=    -3.1022   ZZ=    26.0455
   Eigenvalues:    23.7156    29.7401    38.4938
 43  H    Isotropic =    30.3793   Anisotropy =     8.0174
   XX=    33.4868   YX=    -2.2131   ZX=    -3.4339
   XY=    -1.3452   YY=    28.2358   ZY=    -1.0314
   XZ=    -3.5328   YZ=     0.1316   ZZ=    29.4154
   Eigenvalues:    26.4165    28.9972    35.7243
 44  H    Isotropic =    29.3401   Anisotropy =     8.5262
   XX=    28.7056   YX=    -4.0034   ZX=     0.3896
   XY=    -1.0278   YY=    33.9637   ZY=     0.5153
   XZ=     0.0035   YZ=     1.1518   ZZ=    25.3510
   Eigenvalues:    25.2033    27.7927    35.0242
 45  H    Isotropic =    29.2770   Anisotropy =     7.2358
   XX=    31.6570   YX=    -1.9996   ZX=     4.4247
   XY=    -1.0585   YY=    27.3632   ZY=     0.3067
   XZ=     2.2827   YZ=    -0.0980   ZZ=    28.8107
   Eigenvalues:    25.9078    27.8222    34.1008
 End of Minotr Frequency-dependent properties file   721 does not exist.

 **********************************************************************

            Population analysis using the SCF density.

 **********************************************************************

 Orbital symmetries:
       Occupied  (A) (A) (A) (A) (A) (A) (A) (A) (A) (A) (A) (A)
                 (A) (A) (A) (A) (A) (A) (A) (A) (A) (A) (A) (A)
                 (A) (A) (A) (A) (A) (A) (A) (A) (A) (A) (A) (A)
                 (A) (A) (A) (A) (A) (A) (A) (A) (A) (A) (A) (A)
                 (A) (A) (A) (A) (A) (A) (A) (A) (A) (A) (A) (A)
                 (A) (A) (A) (A) (A) (A) (A) (A) (A) (A) (A) (A)
                 (A) (A) (A) (A) (A) (A) (A) (A) (A) (A) (A) (A)
                 (A) (A) (A) (A) (A) (A) (A) (A) (A) (A) (A) (A)
                 (A) (A) (A) (A) (A) (A) (A) (A) (A) (A) (A) (A)
                 (A) (A) (A)
       Virtual   (A) (A) (A) (A) (A) (A) (A) (A) (A) (A) (A) (A)
                 (A) (A) (A) (A) (A) (A) (A) (A) (A) (A) (A) (A)
                 (A) (A) (A) (A) (A) (A) (A) (A) (A) (A) (A) (A)
                 (A) (A) (A) (A) (A) (A) (A) (A) (A) (A) (A) (A)
                 (A) (A) (A) (A) (A) (A) (A) (A) (A) (A) (A) (A)
                 (A) (A) (A) (A) (A) (A) (A) (A) (A) (A) (A) (A)
                 (A) (A) (A) (A) (A) (A) (A) (A) (A) (A) (A) (A)
                 (A) (A) (A) (A) (A) (A) (A) (A) (A) (A) (A) (A)
                 (A) (A) (A) (A) (A) (A) (A) (A) (A) (A) (A) (A)
                 (A) (A) (A) (A) (A) (A) (A) (A) (A) (A) (A) (A)
                 (A) (A) (A) (A) (A) (A) (A) (A) (A) (A) (A) (A)
                 (A) (A) (A) (A) (A) (A) (A) (A) (A) (A) (A) (A)
                 (A) (A) (A) (A) (A) (A) (A) (A) (A) (A) (A) (A)
                 (A) (A) (A) (A) (A) (A) (A) (A) (A) (A) (A) (A)
                 (A) (A) (A) (A) (A) (A) (A) (A) (A) (A) (A) (A)
                 (A) (A) (A)
 The electronic state is 1-A.
 Alpha  occ. eigenvalues --  -91.98599 -91.95979 -20.62209 -20.61420 -20.59681
 Alpha  occ. eigenvalues --  -20.59506 -20.58340 -20.56380 -15.66387 -15.64645
 Alpha  occ. eigenvalues --  -15.62319 -15.60085 -15.58851 -11.44817 -11.41713
 Alpha  occ. eigenvalues --  -11.41709 -11.37273 -11.34351 -11.33911 -11.33537
 Alpha  occ. eigenvalues --  -11.32692 -11.31670 -11.31651 -11.30134 -11.28164
 Alpha  occ. eigenvalues --  -11.27824 -11.27710 -11.26971  -9.00631  -8.98344
 Alpha  occ. eigenvalues --   -6.68770  -6.68626  -6.68336  -6.66529  -6.66309
 Alpha  occ. eigenvalues --   -6.66033  -1.47300  -1.46032  -1.42369  -1.40891
 Alpha  occ. eigenvalues --   -1.37933  -1.36826  -1.32864  -1.29839  -1.25810
 Alpha  occ. eigenvalues --   -1.21018  -1.18969  -1.15295  -1.11429  -1.07889
 Alpha  occ. eigenvalues --   -1.03200  -1.01468  -0.97343  -0.96571  -0.95059
 Alpha  occ. eigenvalues --   -0.91465  -0.89597  -0.87096  -0.84953  -0.81403
 Alpha  occ. eigenvalues --   -0.79131  -0.78678  -0.76220  -0.75363  -0.72692
 Alpha  occ. eigenvalues --   -0.72212  -0.71305  -0.70325  -0.69598  -0.68755
 Alpha  occ. eigenvalues --   -0.68249  -0.66654  -0.66539  -0.66283  -0.65242
 Alpha  occ. eigenvalues --   -0.64715  -0.64488  -0.63495  -0.62510  -0.62032
 Alpha  occ. eigenvalues --   -0.61560  -0.60567  -0.60198  -0.57832  -0.57457
 Alpha  occ. eigenvalues --   -0.57185  -0.56462  -0.56127  -0.55703  -0.55011
 Alpha  occ. eigenvalues --   -0.54965  -0.52816  -0.51521  -0.50543  -0.50020
 Alpha  occ. eigenvalues --   -0.49813  -0.48883  -0.48217  -0.47749  -0.46155
 Alpha  occ. eigenvalues --   -0.45494  -0.44115  -0.42497  -0.42392  -0.41215
 Alpha  occ. eigenvalues --   -0.41085  -0.40080  -0.37642  -0.37412  -0.36647
 Alpha  occ. eigenvalues --   -0.32595
 Alpha virt. eigenvalues --    0.05734   0.06043   0.11672   0.12196   0.15695
 Alpha virt. eigenvalues --    0.17959   0.18857   0.19113   0.20358   0.21005
 Alpha virt. eigenvalues --    0.21237   0.21792   0.23231   0.24536   0.25015
 Alpha virt. eigenvalues --    0.25704   0.26569   0.26874   0.27838   0.28685
 Alpha virt. eigenvalues --    0.29153   0.29646   0.30041   0.30377   0.31203
 Alpha virt. eigenvalues --    0.31539   0.32167   0.32499   0.32816   0.33442
 Alpha virt. eigenvalues --    0.33682   0.35238   0.35577   0.36999   0.38148
 Alpha virt. eigenvalues --    0.38757   0.39154   0.39897   0.41331   0.41781
 Alpha virt. eigenvalues --    0.42682   0.43820   0.44342   0.46237   0.47100
 Alpha virt. eigenvalues --    0.48877   0.49338   0.49669   0.51490   0.51930
 Alpha virt. eigenvalues --    0.53256   0.54483   0.57203   0.58238   0.60015
 Alpha virt. eigenvalues --    0.60959   0.61119   0.62537   0.63866   0.64770
 Alpha virt. eigenvalues --    0.67560   0.69725   0.72432   0.73127   0.74582
 Alpha virt. eigenvalues --    0.75377   0.76150   0.76370   0.77084   0.77164
 Alpha virt. eigenvalues --    0.77894   0.78671   0.79301   0.79986   0.80189
 Alpha virt. eigenvalues --    0.81145   0.81586   0.82621   0.83370   0.84225
 Alpha virt. eigenvalues --    0.84772   0.86307   0.87146   0.88070   0.88440
 Alpha virt. eigenvalues --    0.88919   0.89953   0.90411   0.92303   0.92918
 Alpha virt. eigenvalues --    0.93412   0.94307   0.95252   0.96350   0.97187
 Alpha virt. eigenvalues --    1.00101   1.00953   1.01828   1.02078   1.04411
 Alpha virt. eigenvalues --    1.04581   1.04964   1.05959   1.07164   1.07577
 Alpha virt. eigenvalues --    1.08150   1.09258   1.10491   1.10888   1.11101
 Alpha virt. eigenvalues --    1.12088   1.12766   1.14094   1.14423   1.15877
 Alpha virt. eigenvalues --    1.16639   1.17051   1.17512   1.17775   1.18852
 Alpha virt. eigenvalues --    1.19284   1.19858   1.20186   1.20612   1.21144
 Alpha virt. eigenvalues --    1.21895   1.22375   1.23209   1.23639   1.24022
 Alpha virt. eigenvalues --    1.24250   1.24942   1.25625   1.26156   1.27122
 Alpha virt. eigenvalues --    1.27323   1.27859   1.29678   1.30275   1.30902
 Alpha virt. eigenvalues --    1.31380   1.31711   1.32834   1.35026   1.36086
 Alpha virt. eigenvalues --    1.36815   1.37663   1.38783   1.40880   1.41789
 Alpha virt. eigenvalues --    1.44216   1.44495   1.48244   1.48691   1.49794
 Alpha virt. eigenvalues --    1.51375   1.54190   1.55229   1.57028   1.57685
 Alpha virt. eigenvalues --    1.58548   1.61517   1.63492   1.66601   1.69111
 Alpha virt. eigenvalues --    1.69739   1.72462   1.74912   1.78989   1.84908
 Alpha virt. eigenvalues --    1.85045   1.89942   1.90520   1.92959   2.04892
 Alpha virt. eigenvalues --    2.05628   2.12747   2.14348   2.16093   2.24793
 Alpha virt. eigenvalues --    2.30245   2.34697   2.41190
          Condensed to atoms (all electrons):
              1          2          3          4          5          6
     1  S   15.623467   0.000153  -0.001527   0.000031   0.000005  -0.000012
     2  S    0.000153  15.299225   0.000000   0.000000   0.000000   0.000000
     3  O   -0.001527   0.000000   8.132357   0.000000  -0.000350   0.000000
     4  O    0.000031   0.000000   0.000000   8.672661   0.000003   0.004069
     5  O    0.000005   0.000000  -0.000350   0.000003   8.436150  -0.102247
     6  O   -0.000012   0.000000   0.000000   0.004069  -0.102247   8.476852
     7  O   -0.000020   0.000001  -0.000685   0.000000   0.000000   0.000000
     8  O    0.000000   0.000002   0.000000   0.000000   0.000000   0.000000
     9  N   -0.114519   0.000000  -0.054176  -0.000009   0.005709   0.001588
    10  N    0.005939   0.000416   0.001679   0.000000   0.000000   0.000000
    11  N   -0.000001  -0.000003   0.000002   0.000000   0.000000   0.000000
    12  N   -0.000001  -0.081298   0.000000   0.000000   0.000000   0.000000
    13  N    0.000000  -0.051740   0.000000   0.000000   0.000000   0.000000
    14  C    0.197839  -0.000007   0.003904  -0.000004   0.000048  -0.000039
    15  C   -0.086561   0.000001  -0.062976   0.000000  -0.000004   0.000001
    16  C    0.011282  -0.000001   0.506204   0.000000   0.000822   0.000006
    17  C   -0.001378   0.000000   0.003360   0.001159  -0.091410  -0.117972
    18  C   -0.084576   0.000000   0.000108  -0.071067   0.002285   0.012552
    19  C    0.150712  -0.000001   0.000024   0.003804  -0.000017   0.000215
    20  C    0.004225   0.000000   0.000001   0.160989  -0.000583  -0.093193
    21  C   -0.000402   0.000000   0.001013  -0.000395   0.212221   0.452869
    22  C    0.000143   0.000080   0.003550   0.000000   0.000000   0.000000
    23  C   -0.000206  -0.001681  -0.000150   0.000000   0.000000   0.000000
    24  C    0.000262  -0.132393  -0.000009   0.000000   0.000000   0.000000
    25  C    0.000003   0.000000   0.000000   0.145689   0.000001  -0.000041
    26  C   -0.001622   0.258980   0.000005   0.000000   0.000000   0.000000
    27  C   -0.000002   0.206457   0.000000   0.000000   0.000000   0.000000
    28  C    0.000000   0.000000   0.000000   0.000000   0.000000   0.000000
    29  H   -0.061909   0.000000  -0.000121  -0.000001   0.000000   0.000000
    30  H    0.003727   0.000000  -0.000008   0.000000   0.000000   0.000000
    31  H   -0.033935   0.000000   0.000000   0.000359   0.000000   0.000003
    32  H   -0.037775   0.000000   0.000000  -0.000205   0.000000   0.000005
    33  H   -0.000426  -0.000043  -0.000061   0.000000   0.000000   0.000000
    34  H   -0.000196   0.000000   0.000000  -0.055540   0.000003   0.002738
    35  H   -0.000201   0.000000   0.000000  -0.046596  -0.000315  -0.027115
    36  H    0.000000   0.000000   0.000016  -0.000001   0.256526   0.001186
    37  H    0.000000   0.000000   0.000000  -0.029868   0.000000   0.000004
    38  H    0.000000   0.000000   0.000000  -0.044738   0.000000   0.000674
    39  H    0.000000   0.000000   0.000000  -0.048397   0.000000   0.000050
    40  H    0.004096  -0.006448  -0.000022   0.000000   0.000000   0.000000
    41  H    0.000000   0.002450   0.000000   0.000000   0.000000   0.000000
    42  H    0.000000  -0.000336   0.000000   0.000000   0.000000   0.000000
    43  H    0.000000   0.000000   0.000000   0.000000   0.000000   0.000000
    44  H    0.000000   0.000000   0.000000   0.000000   0.000000   0.000000
    45  H    0.000000   0.000000   0.000000   0.000000   0.000000   0.000000
              7          8          9         10         11         12
     1  S   -0.000020   0.000000  -0.114519   0.005939  -0.000001  -0.000001
     2  S    0.000001   0.000002   0.000000   0.000416  -0.000003  -0.081298
     3  O   -0.000685   0.000000  -0.054176   0.001679   0.000002   0.000000
     4  O    0.000000   0.000000  -0.000009   0.000000   0.000000   0.000000
     5  O    0.000000   0.000000   0.005709   0.000000   0.000000   0.000000
     6  O    0.000000   0.000000   0.001588   0.000000   0.000000   0.000000
     7  O    8.234488  -0.027584  -0.000008  -0.141006   0.000499  -0.000003
     8  O   -0.027584   8.592990   0.000000  -0.000158   0.028413  -0.000022
     9  N   -0.000008   0.000000   7.862193   0.010895   0.000000   0.000000
    10  N   -0.141006  -0.000158   0.010895   7.714818   0.002686   0.000131
    11  N    0.000499   0.028413   0.000000   0.002686   6.859299   0.006081
    12  N   -0.000003  -0.000022   0.000000   0.000131   0.006081   7.060951
    13  N    0.000000   0.000000   0.000000   0.000000  -0.000004  -0.076050
    14  C    0.000259   0.000000   0.000291  -0.045479   0.000000   0.000000
    15  C    0.005627   0.000012  -0.236664   0.118542  -0.000168   0.000000
    16  C   -0.000583  -0.000001   0.139068  -0.038245  -0.000001   0.000000
    17  C    0.000000   0.000000   0.186881  -0.000357   0.000000   0.000000
    18  C    0.000000   0.000000  -0.068248   0.000026   0.000000   0.000000
    19  C    0.000000   0.000000  -0.005515  -0.000020   0.000000   0.000000
    20  C    0.000000   0.000000   0.001680   0.000000   0.000000   0.000000
    21  C    0.000000   0.000000  -0.029118   0.000001   0.000000   0.000000
    22  C    0.513289  -0.006311  -0.000271   0.114092  -0.081114   0.001641
    23  C   -0.105696  -0.086631   0.000000  -0.131525   0.463995  -0.026832
    24  C    0.002896   0.004042  -0.000001   0.023866  -0.073376   0.398370
    25  C    0.000000   0.000000   0.000001   0.000000   0.000000   0.000000
    26  C   -0.000204  -0.000006  -0.000003  -0.051958   0.004397  -0.137087
    27  C    0.000000  -0.000001   0.000000   0.000016  -0.000179   0.343317
    28  C    0.000678   0.125578   0.000000   0.000001  -0.078016   0.000005
    29  H    0.000003   0.000000  -0.034869   0.000513   0.000000   0.000000
    30  H    0.009975   0.000004   0.005785  -0.054594  -0.000003   0.000000
    31  H    0.000000   0.000000  -0.000905  -0.000005   0.000000   0.000000
    32  H    0.000000   0.000000  -0.000069   0.000003   0.000000   0.000000
    33  H    0.000588   0.000009  -0.000280   0.319343  -0.000098   0.000003
    34  H    0.000000   0.000000  -0.000078   0.000000   0.000000   0.000000
    35  H    0.000000   0.000000   0.000061   0.000000   0.000000   0.000000
    36  H    0.000000   0.000000  -0.000240   0.000000   0.000000   0.000000
    37  H    0.000000   0.000000   0.000000   0.000000   0.000000   0.000000
    38  H    0.000000   0.000000   0.000000   0.000000   0.000000   0.000000
    39  H    0.000000   0.000000   0.000000   0.000000   0.000000   0.000000
    40  H    0.000028   0.000001   0.000024  -0.006450   0.000056   0.001596
    41  H    0.000000   0.000000   0.000000   0.000000   0.000001   0.000995
    42  H    0.000000   0.000000   0.000000   0.000000   0.000000   0.003262
    43  H   -0.000078  -0.043689   0.000000  -0.000001  -0.000913   0.000000
    44  H    0.000007  -0.025082   0.000000   0.000000   0.004882   0.000000
    45  H   -0.000026  -0.042099   0.000000   0.000000   0.003924   0.000001
             13         14         15         16         17         18
     1  S    0.000000   0.197839  -0.086561   0.011282  -0.001378  -0.084576
     2  S   -0.051740  -0.000007   0.000001  -0.000001   0.000000   0.000000
     3  O    0.000000   0.003904  -0.062976   0.506204   0.003360   0.000108
     4  O    0.000000  -0.000004   0.000000   0.000000   0.001159  -0.071067
     5  O    0.000000   0.000048  -0.000004   0.000822  -0.091410   0.002285
     6  O    0.000000  -0.000039   0.000001   0.000006  -0.117972   0.012552
     7  O    0.000000   0.000259   0.005627  -0.000583   0.000000   0.000000
     8  O    0.000000   0.000000   0.000012  -0.000001   0.000000   0.000000
     9  N    0.000000   0.000291  -0.236664   0.139068   0.186881  -0.068248
    10  N    0.000000  -0.045479   0.118542  -0.038245  -0.000357   0.000026
    11  N   -0.000004   0.000000  -0.000168  -0.000001   0.000000   0.000000
    12  N   -0.076050   0.000000   0.000000   0.000000   0.000000   0.000000
    13  N    7.027438   0.000000   0.000000   0.000000   0.000000   0.000000
    14  C    0.000000   6.068792   0.097629  -0.237340  -0.041275  -0.005524
    15  C    0.000000   0.097629   5.642886   0.205921   0.020015  -0.001354
    16  C    0.000000  -0.237340   0.205921   4.757261  -0.040662   0.001185
    17  C    0.000000  -0.041275   0.020015  -0.040662   5.239245   0.463110
    18  C    0.000000  -0.005524  -0.001354   0.001185   0.463110   5.483545
    19  C    0.000000  -0.054041   0.006800  -0.001138  -0.044020   0.152374
    20  C    0.000000   0.000249  -0.000009  -0.000012  -0.013879   0.251067
    21  C    0.000000   0.003253  -0.000170  -0.002137   0.274866  -0.043690
    22  C    0.000000   0.006308  -0.058086  -0.004034   0.000012   0.000000
    23  C    0.000083  -0.000005   0.004815   0.000025   0.000000   0.000000
    24  C    0.004025   0.000009  -0.000988   0.000022   0.000000   0.000000
    25  C    0.000000   0.000000   0.000000   0.000000  -0.000069   0.007021
    26  C    0.002084   0.000062   0.001445   0.000124   0.000000  -0.000001
    27  C    0.224406   0.000000   0.000000   0.000000   0.000000   0.000000
    28  C    0.000000   0.000000   0.000000   0.000000   0.000000   0.000000
    29  H    0.000000   0.378014  -0.032061   0.013186  -0.001609   0.000212
    30  H    0.000000  -0.036206   0.405397  -0.033523  -0.000142  -0.000007
    31  H    0.000000  -0.006987  -0.000211   0.000042  -0.003447  -0.045697
    32  H    0.000000   0.003659  -0.000071   0.000014   0.003080  -0.032081
    33  H    0.000000  -0.002984  -0.029391   0.003356   0.000008   0.000000
    34  H    0.000000   0.000014   0.000000   0.000002   0.004279  -0.049023
    35  H    0.000000  -0.000004   0.000000   0.000007   0.002759  -0.051220
    36  H    0.000000   0.000001   0.000000  -0.000002   0.006303  -0.000099
    37  H    0.000000   0.000000   0.000000   0.000000   0.000001  -0.000172
    38  H    0.000000   0.000000   0.000000   0.000000   0.000033  -0.000525
    39  H    0.000000   0.000000   0.000000   0.000000   0.000010  -0.000402
    40  H   -0.000002   0.000409   0.000447  -0.000014  -0.000001   0.000007
    41  H    0.329728   0.000000   0.000000   0.000000   0.000000   0.000000
    42  H    0.319851   0.000000   0.000000   0.000000   0.000000   0.000000
    43  H    0.000000   0.000000   0.000000   0.000000   0.000000   0.000000
    44  H    0.000000   0.000000   0.000000   0.000000   0.000000   0.000000
    45  H    0.000000   0.000000   0.000000   0.000000   0.000000   0.000000
             19         20         21         22         23         24
     1  S    0.150712   0.004225  -0.000402   0.000143  -0.000206   0.000262
     2  S   -0.000001   0.000000   0.000000   0.000080  -0.001681  -0.132393
     3  O    0.000024   0.000001   0.001013   0.003550  -0.000150  -0.000009
     4  O    0.003804   0.160989  -0.000395   0.000000   0.000000   0.000000
     5  O   -0.000017  -0.000583   0.212221   0.000000   0.000000   0.000000
     6  O    0.000215  -0.093193   0.452869   0.000000   0.000000   0.000000
     7  O    0.000000   0.000000   0.000000   0.513289  -0.105696   0.002896
     8  O    0.000000   0.000000   0.000000  -0.006311  -0.086631   0.004042
     9  N   -0.005515   0.001680  -0.029118  -0.000271   0.000000  -0.000001
    10  N   -0.000020   0.000000   0.000001   0.114092  -0.131525   0.023866
    11  N    0.000000   0.000000   0.000000  -0.081114   0.463995  -0.073376
    12  N    0.000000   0.000000   0.000000   0.001641  -0.026832   0.398370
    13  N    0.000000   0.000000   0.000000   0.000000   0.000083   0.004025
    14  C   -0.054041   0.000249   0.003253   0.006308  -0.000005   0.000009
    15  C    0.006800  -0.000009  -0.000170  -0.058086   0.004815  -0.000988
    16  C   -0.001138  -0.000012  -0.002137  -0.004034   0.000025   0.000022
    17  C   -0.044020  -0.013879   0.274866   0.000012   0.000000   0.000000
    18  C    0.152374   0.251067  -0.043690   0.000000   0.000000   0.000000
    19  C    5.731066  -0.024909   0.002760   0.000000   0.000000   0.000000
    20  C   -0.024909   5.024209  -0.016839   0.000000   0.000000   0.000000
    21  C    0.002760  -0.016839   4.335210   0.000000   0.000000   0.000000
    22  C    0.000000   0.000000   0.000000   4.761469   0.170192  -0.070227
    23  C    0.000000   0.000000   0.000000   0.170192   5.353061   0.232534
    24  C    0.000000   0.000000   0.000000  -0.070227   0.232534   5.076143
    25  C   -0.000043  -0.064593   0.000091   0.000000   0.000000   0.000000
    26  C    0.000036   0.000000   0.000000  -0.012231  -0.069523   0.319727
    27  C    0.000000   0.000000   0.000000  -0.000041   0.009677  -0.072211
    28  C    0.000000   0.000000   0.000000  -0.000254   0.004739  -0.000053
    29  H   -0.005650   0.000045   0.000035  -0.000117   0.000001   0.000000
    30  H   -0.000060   0.000000   0.000003  -0.000425   0.000147  -0.000002
    31  H    0.361423   0.000782  -0.000098   0.000000   0.000000   0.000000
    32  H    0.394033  -0.002735  -0.000037   0.000000   0.000000   0.000000
    33  H   -0.000022   0.000000   0.000000  -0.024593   0.000477   0.000267
    34  H   -0.009161   0.372421   0.000925   0.000000   0.000000   0.000000
    35  H    0.002801   0.419692  -0.014909   0.000000   0.000000   0.000000
    36  H    0.000000   0.000034  -0.019497   0.000000   0.000000   0.000000
    37  H    0.000006   0.005322  -0.000003   0.000000   0.000000   0.000000
    38  H    0.000006  -0.006063  -0.000113   0.000000   0.000000   0.000000
    39  H   -0.000039  -0.007833   0.000008   0.000000   0.000000   0.000000
    40  H   -0.000173   0.000000   0.000000  -0.002855   0.001449  -0.011963
    41  H    0.000000   0.000000   0.000000   0.000000  -0.000018   0.000252
    42  H    0.000000   0.000000   0.000000   0.000000  -0.000001  -0.000243
    43  H    0.000000   0.000000   0.000000   0.000089   0.001601  -0.000080
    44  H    0.000000   0.000000   0.000000   0.000044  -0.000234  -0.000002
    45  H    0.000000   0.000000   0.000000   0.000041  -0.000764   0.000003
             25         26         27         28         29         30
     1  S    0.000003  -0.001622  -0.000002   0.000000  -0.061909   0.003727
     2  S    0.000000   0.258980   0.206457   0.000000   0.000000   0.000000
     3  O    0.000000   0.000005   0.000000   0.000000  -0.000121  -0.000008
     4  O    0.145689   0.000000   0.000000   0.000000  -0.000001   0.000000
     5  O    0.000001   0.000000   0.000000   0.000000   0.000000   0.000000
     6  O   -0.000041   0.000000   0.000000   0.000000   0.000000   0.000000
     7  O    0.000000  -0.000204   0.000000   0.000678   0.000003   0.009975
     8  O    0.000000  -0.000006  -0.000001   0.125578   0.000000   0.000004
     9  N    0.000001  -0.000003   0.000000   0.000000  -0.034869   0.005785
    10  N    0.000000  -0.051958   0.000016   0.000001   0.000513  -0.054594
    11  N    0.000000   0.004397  -0.000179  -0.078016   0.000000  -0.000003
    12  N    0.000000  -0.137087   0.343317   0.000005   0.000000   0.000000
    13  N    0.000000   0.002084   0.224406   0.000000   0.000000   0.000000
    14  C    0.000000   0.000062   0.000000   0.000000   0.378014  -0.036206
    15  C    0.000000   0.001445   0.000000   0.000000  -0.032061   0.405397
    16  C    0.000000   0.000124   0.000000   0.000000   0.013186  -0.033523
    17  C   -0.000069   0.000000   0.000000   0.000000  -0.001609  -0.000142
    18  C    0.007021  -0.000001   0.000000   0.000000   0.000212  -0.000007
    19  C   -0.000043   0.000036   0.000000   0.000000  -0.005650  -0.000060
    20  C   -0.064593   0.000000   0.000000   0.000000   0.000045   0.000000
    21  C    0.000091   0.000000   0.000000   0.000000   0.000035   0.000003
    22  C    0.000000  -0.012231  -0.000041  -0.000254  -0.000117  -0.000425
    23  C    0.000000  -0.069523   0.009677   0.004739   0.000001   0.000147
    24  C    0.000000   0.319727  -0.072211  -0.000053   0.000000  -0.000002
    25  C    4.875894   0.000000   0.000000   0.000000   0.000000   0.000000
    26  C    0.000000   6.016408  -0.070827   0.000003   0.000000  -0.000060
    27  C    0.000000  -0.070827   5.288774   0.000000   0.000000   0.000000
    28  C    0.000000   0.000003   0.000000   4.900051   0.000000   0.000000
    29  H    0.000000   0.000000   0.000000   0.000000   0.490430  -0.002585
    30  H    0.000000  -0.000060   0.000000   0.000000  -0.002585   0.415744
    31  H   -0.000004   0.000000   0.000000   0.000000   0.005472   0.000002
    32  H   -0.000004   0.000000   0.000000   0.000000  -0.000071   0.000000
    33  H    0.000000   0.000180   0.000001   0.000000   0.000337  -0.000952
    34  H   -0.003154   0.000000   0.000000   0.000000   0.000000   0.000000
    35  H   -0.001292   0.000000   0.000000   0.000000   0.000000   0.000000
    36  H    0.000000   0.000000   0.000000   0.000000   0.000000   0.000000
    37  H    0.394286   0.000000   0.000000   0.000000   0.000000   0.000000
    38  H    0.390819   0.000000   0.000000   0.000000   0.000000   0.000000
    39  H    0.383486   0.000000   0.000000   0.000000   0.000000   0.000000
    40  H    0.000000   0.359616   0.001024   0.000000   0.000025  -0.000026
    41  H    0.000000  -0.000089  -0.037199   0.000000   0.000000   0.000000
    42  H    0.000000   0.000035  -0.033717   0.000000   0.000000   0.000000
    43  H    0.000000  -0.000001   0.000000   0.385474   0.000000   0.000000
    44  H    0.000000   0.000000   0.000000   0.388510   0.000000   0.000000
    45  H    0.000000   0.000000   0.000000   0.386069   0.000000   0.000000
             31         32         33         34         35         36
     1  S   -0.033935  -0.037775  -0.000426  -0.000196  -0.000201   0.000000
     2  S    0.000000   0.000000  -0.000043   0.000000   0.000000   0.000000
     3  O    0.000000   0.000000  -0.000061   0.000000   0.000000   0.000016
     4  O    0.000359  -0.000205   0.000000  -0.055540  -0.046596  -0.000001
     5  O    0.000000   0.000000   0.000000   0.000003  -0.000315   0.256526
     6  O    0.000003   0.000005   0.000000   0.002738  -0.027115   0.001186
     7  O    0.000000   0.000000   0.000588   0.000000   0.000000   0.000000
     8  O    0.000000   0.000000   0.000009   0.000000   0.000000   0.000000
     9  N   -0.000905  -0.000069  -0.000280  -0.000078   0.000061  -0.000240
    10  N   -0.000005   0.000003   0.319343   0.000000   0.000000   0.000000
    11  N    0.000000   0.000000  -0.000098   0.000000   0.000000   0.000000
    12  N    0.000000   0.000000   0.000003   0.000000   0.000000   0.000000
    13  N    0.000000   0.000000   0.000000   0.000000   0.000000   0.000000
    14  C   -0.006987   0.003659  -0.002984   0.000014  -0.000004   0.000001
    15  C   -0.000211  -0.000071  -0.029391   0.000000   0.000000   0.000000
    16  C    0.000042   0.000014   0.003356   0.000002   0.000007  -0.000002
    17  C   -0.003447   0.003080   0.000008   0.004279   0.002759   0.006303
    18  C   -0.045697  -0.032081   0.000000  -0.049023  -0.051220  -0.000099
    19  C    0.361423   0.394033  -0.000022  -0.009161   0.002801   0.000000
    20  C    0.000782  -0.002735   0.000000   0.372421   0.419692   0.000034
    21  C   -0.000098  -0.000037   0.000000   0.000925  -0.014909  -0.019497
    22  C    0.000000   0.000000  -0.024593   0.000000   0.000000   0.000000
    23  C    0.000000   0.000000   0.000477   0.000000   0.000000   0.000000
    24  C    0.000000   0.000000   0.000267   0.000000   0.000000   0.000000
    25  C   -0.000004  -0.000004   0.000000  -0.003154  -0.001292   0.000000
    26  C    0.000000   0.000000   0.000180   0.000000   0.000000   0.000000
    27  C    0.000000   0.000000   0.000001   0.000000   0.000000   0.000000
    28  C    0.000000   0.000000   0.000000   0.000000   0.000000   0.000000
    29  H    0.005472  -0.000071   0.000337   0.000000   0.000000   0.000000
    30  H    0.000002   0.000000  -0.000952   0.000000   0.000000   0.000000
    31  H    0.493551  -0.016053   0.000001   0.000305  -0.000051   0.000000
    32  H   -0.016053   0.444091   0.000000   0.002765  -0.000061   0.000000
    33  H    0.000001   0.000000   0.364272   0.000000   0.000000   0.000000
    34  H    0.000305   0.002765   0.000000   0.632603  -0.043003   0.000000
    35  H   -0.000051  -0.000061   0.000000  -0.043003   0.472936   0.000039
    36  H    0.000000   0.000000   0.000000   0.000000   0.000039   0.312192
    37  H   -0.000002   0.000001   0.000000  -0.000219  -0.000159   0.000000
    38  H    0.000001  -0.000001   0.000000  -0.001386   0.007102   0.000000
    39  H    0.000005   0.000001   0.000000   0.009114  -0.001695   0.000000
    40  H    0.000002   0.000000  -0.001032   0.000000   0.000000   0.000000
    41  H    0.000000   0.000000   0.000000   0.000000   0.000000   0.000000
    42  H    0.000000   0.000000   0.000000   0.000000   0.000000   0.000000
    43  H    0.000000   0.000000   0.000000   0.000000   0.000000   0.000000
    44  H    0.000000   0.000000   0.000000   0.000000   0.000000   0.000000
    45  H    0.000000   0.000000   0.000000   0.000000   0.000000   0.000000
             37         38         39         40         41         42
     1  S    0.000000   0.000000   0.000000   0.004096   0.000000   0.000000
     2  S    0.000000   0.000000   0.000000  -0.006448   0.002450  -0.000336
     3  O    0.000000   0.000000   0.000000  -0.000022   0.000000   0.000000
     4  O   -0.029868  -0.044738  -0.048397   0.000000   0.000000   0.000000
     5  O    0.000000   0.000000   0.000000   0.000000   0.000000   0.000000
     6  O    0.000004   0.000674   0.000050   0.000000   0.000000   0.000000
     7  O    0.000000   0.000000   0.000000   0.000028   0.000000   0.000000
     8  O    0.000000   0.000000   0.000000   0.000001   0.000000   0.000000
     9  N    0.000000   0.000000   0.000000   0.000024   0.000000   0.000000
    10  N    0.000000   0.000000   0.000000  -0.006450   0.000000   0.000000
    11  N    0.000000   0.000000   0.000000   0.000056   0.000001   0.000000
    12  N    0.000000   0.000000   0.000000   0.001596   0.000995   0.003262
    13  N    0.000000   0.000000   0.000000  -0.000002   0.329728   0.319851
    14  C    0.000000   0.000000   0.000000   0.000409   0.000000   0.000000
    15  C    0.000000   0.000000   0.000000   0.000447   0.000000   0.000000
    16  C    0.000000   0.000000   0.000000  -0.000014   0.000000   0.000000
    17  C    0.000001   0.000033   0.000010  -0.000001   0.000000   0.000000
    18  C   -0.000172  -0.000525  -0.000402   0.000007   0.000000   0.000000
    19  C    0.000006   0.000006  -0.000039  -0.000173   0.000000   0.000000
    20  C    0.005322  -0.006063  -0.007833   0.000000   0.000000   0.000000
    21  C   -0.000003  -0.000113   0.000008   0.000000   0.000000   0.000000
    22  C    0.000000   0.000000   0.000000  -0.002855   0.000000   0.000000
    23  C    0.000000   0.000000   0.000000   0.001449  -0.000018  -0.000001
    24  C    0.000000   0.000000   0.000000  -0.011963   0.000252  -0.000243
    25  C    0.394286   0.390819   0.383486   0.000000   0.000000   0.000000
    26  C    0.000000   0.000000   0.000000   0.359616  -0.000089   0.000035
    27  C    0.000000   0.000000   0.000000   0.001024  -0.037199  -0.033717
    28  C    0.000000   0.000000   0.000000   0.000000   0.000000   0.000000
    29  H    0.000000   0.000000   0.000000   0.000025   0.000000   0.000000
    30  H    0.000000   0.000000   0.000000  -0.000026   0.000000   0.000000
    31  H   -0.000002   0.000001   0.000005   0.000002   0.000000   0.000000
    32  H    0.000001  -0.000001   0.000001   0.000000   0.000000   0.000000
    33  H    0.000000   0.000000   0.000000  -0.001032   0.000000   0.000000
    34  H   -0.000219  -0.001386   0.009114   0.000000   0.000000   0.000000
    35  H   -0.000159   0.007102  -0.001695   0.000000   0.000000   0.000000
    36  H    0.000000   0.000000   0.000000   0.000000   0.000000   0.000000
    37  H    0.514690  -0.029681  -0.032566   0.000000   0.000000   0.000000
    38  H   -0.029681   0.560805  -0.046217   0.000000   0.000000   0.000000
    39  H   -0.032566  -0.046217   0.603931   0.000000   0.000000   0.000000
    40  H    0.000000   0.000000   0.000000   0.311453   0.000000   0.000000
    41  H    0.000000   0.000000   0.000000   0.000000   0.370502  -0.025517
    42  H    0.000000   0.000000   0.000000   0.000000  -0.025517   0.402456
    43  H    0.000000   0.000000   0.000000   0.000000   0.000000   0.000000
    44  H    0.000000   0.000000   0.000000   0.000000   0.000000   0.000000
    45  H    0.000000   0.000000   0.000000   0.000000   0.000000   0.000000
             43         44         45
     1  S    0.000000   0.000000   0.000000
     2  S    0.000000   0.000000   0.000000
     3  O    0.000000   0.000000   0.000000
     4  O    0.000000   0.000000   0.000000
     5  O    0.000000   0.000000   0.000000
     6  O    0.000000   0.000000   0.000000
     7  O   -0.000078   0.000007  -0.000026
     8  O   -0.043689  -0.025082  -0.042099
     9  N    0.000000   0.000000   0.000000
    10  N   -0.000001   0.000000   0.000000
    11  N   -0.000913   0.004882   0.003924
    12  N    0.000000   0.000000   0.000001
    13  N    0.000000   0.000000   0.000000
    14  C    0.000000   0.000000   0.000000
    15  C    0.000000   0.000000   0.000000
    16  C    0.000000   0.000000   0.000000
    17  C    0.000000   0.000000   0.000000
    18  C    0.000000   0.000000   0.000000
    19  C    0.000000   0.000000   0.000000
    20  C    0.000000   0.000000   0.000000
    21  C    0.000000   0.000000   0.000000
    22  C    0.000089   0.000044   0.000041
    23  C    0.001601  -0.000234  -0.000764
    24  C   -0.000080  -0.000002   0.000003
    25  C    0.000000   0.000000   0.000000
    26  C   -0.000001   0.000000   0.000000
    27  C    0.000000   0.000000   0.000000
    28  C    0.385474   0.388510   0.386069
    29  H    0.000000   0.000000   0.000000
    30  H    0.000000   0.000000   0.000000
    31  H    0.000000   0.000000   0.000000
    32  H    0.000000   0.000000   0.000000
    33  H    0.000000   0.000000   0.000000
    34  H    0.000000   0.000000   0.000000
    35  H    0.000000   0.000000   0.000000
    36  H    0.000000   0.000000   0.000000
    37  H    0.000000   0.000000   0.000000
    38  H    0.000000   0.000000   0.000000
    39  H    0.000000   0.000000   0.000000
    40  H    0.000000   0.000000   0.000000
    41  H    0.000000   0.000000   0.000000
    42  H    0.000000   0.000000   0.000000
    43  H    0.564411  -0.031946  -0.038996
    44  H   -0.031946   0.502633  -0.028980
    45  H   -0.038996  -0.028980   0.538947
 Mulliken atomic charges:
              1
     1  S    0.423383
     2  S    0.506186
     3  O   -0.532137
     4  O   -0.691943
     5  O   -0.718848
     6  O   -0.612193
     7  O   -0.492445
     8  O   -0.519464
     9  N   -0.669204
    10  N   -0.843171
    11  N   -0.140360
    12  N   -0.495061
    13  N   -0.779821
    14  C   -0.330846
    15  C   -0.000827
    16  C    0.719166
    17  C    0.151099
    18  C    0.080196
    19  C   -0.661251
    20  C   -0.010069
    21  C    0.844157
    22  C    0.689611
    23  C    0.180469
    24  C    0.299132
    25  C   -0.128088
    26  C   -0.619489
    27  C    0.140505
    28  C   -0.112786
    29  H    0.250719
    30  H    0.287808
    31  H    0.245449
    32  H    0.241511
    33  H    0.371039
    34  H    0.136590
    35  H    0.281222
    36  H    0.443539
    37  H    0.178360
    38  H    0.169284
    39  H    0.140543
    40  H    0.348753
    41  H    0.358894
    42  H    0.334208
    43  H    0.164130
    44  H    0.190169
    45  H    0.181881
 Sum of Mulliken charges=   0.00000
 Atomic charges with hydrogens summed into heavy atoms:
              1
     1  S    0.423383
     2  S    0.506186
     3  O   -0.532137
     4  O   -0.691943
     5  O   -0.275309
     6  O   -0.612193
     7  O   -0.492445
     8  O   -0.519464
     9  N   -0.669204
    10  N   -0.472132
    11  N   -0.140360
    12  N   -0.495061
    13  N   -0.086719
    14  C   -0.080127
    15  C    0.286980
    16  C    0.719166
    17  C    0.151099
    18  C    0.080196
    19  C   -0.174292
    20  C    0.407742
    21  C    0.844157
    22  C    0.689611
    23  C    0.180469
    24  C    0.299132
    25  C    0.360100
    26  C   -0.270736
    27  C    0.140505
    28  C    0.423394
    29  H    0.000000
    30  H    0.000000
    31  H    0.000000
    32  H    0.000000
    33  H    0.000000
    34  H    0.000000
    35  H    0.000000
    36  H    0.000000
    37  H    0.000000
    38  H    0.000000
    39  H    0.000000
    40  H    0.000000
    41  H    0.000000
    42  H    0.000000
    43  H    0.000000
    44  H    0.000000
    45  H    0.000000
 Sum of Mulliken charges=   0.00000
 Electronic spatial extent (au):  <R**2>= 16041.7534
 Charge=     0.0000 electrons
 Dipole moment (field-independent basis, Debye):
    X=     0.4298    Y=    -4.2589    Z=     6.1368  Tot=     7.4822
 Quadrupole moment (field-independent basis, Debye-Ang):
   XX=  -144.6152   YY=  -168.7435   ZZ=  -180.6312
   XY=    -2.0634   XZ=   -11.5909   YZ=     2.6866
 Traceless Quadrupole moment (field-independent basis, Debye-Ang):
   XX=    20.0481   YY=    -4.0802   ZZ=   -15.9679
   XY=    -2.0634   XZ=   -11.5909   YZ=     2.6866
 Octapole moment (field-independent basis, Debye-Ang**2):
  XXX=   -85.1872  YYY=     4.4463  ZZZ=    39.2557  XYY=   -33.3379
  XXY=   -38.3903  XXZ=   -23.9676  XZZ=    20.0089  YZZ=    23.1523
  YYZ=   -14.6268  XYZ=     4.8931
 Hexadecapole moment (field-independent basis, Debye-Ang**3):
 XXXX=-13259.0882 YYYY= -3985.6706 ZZZZ= -1022.0402 XXXY=    10.9080
 XXXZ=  -269.6119 YYYX=   121.1631 YYYZ=   -72.7796 ZZZX=   -67.5110
 ZZZY=   -43.6353 XXYY= -2174.5021 XXZZ= -2947.7750 YYZZ=  -964.7012
 XXYZ=    53.2422 YYXZ=   -42.0782 ZZXY=  -100.3553
 N-N= 2.970366488942D+03 E-N=-1.088026947543D+04  KE= 2.093217361709D+03
 1|1|UNPC-UNK|SP|RHF|6-31G|C15H17N5O6S2|PCUSER|11-Dec-2021|0||# NMR=GIA
 O HF/6-31G GEOM=CONNECTIVITY||nmr of cefpodoxime||0,1|S,0,-1.38407618,
 -0.63747077,-1.76745776|S,0,3.20022686,-2.55229757,-2.43312401|O,0,-0.
 49837005,0.9601684,1.55250971|O,0,-6.19735978,-0.97589396,-0.69435001|
 O,0,-3.71496553,1.75536537,2.29089071|O,0,-5.0255906,-0.11916566,1.847
 74555|O,0,1.92598922,2.81033622,0.05300034|O,0,4.12734306,2.54444794,1
 .10456569|N,0,-2.28854085,1.33031952,-0.25817956|N,0,1.00084161,1.1536
 924,-1.35907384|N,0,4.27446308,1.32693657,0.51666958|N,0,4.71131883,-1
 .38078284,-0.72255097|N,0,5.52376666,-3.65304201,-1.1742651|C,0,-1.542
 37383,1.09602152,-1.52636012|C,0,-0.30143323,1.66698808,-0.91017782|C,
 0,-0.9259697,1.25450748,0.40617043|C,0,-3.38183056,0.39059024,0.135639
 22|C,0,-3.78938015,-0.69324614,-0.6144974|C,0,-3.07090209,-1.1178559,-
 1.91173502|C,0,-4.99847521,-1.51639512,-0.13271494|C,0,-4.09996784,0.6
 4687852,1.4736209|C,0,2.06212199,1.68378172,-0.49097889|C,0,3.34053479
 ,0.86046014,-0.24725373|C,0,3.50712594,-0.5181928,-0.91295899|C,0,-7.3
 200905,-1.74024685,-0.24697989|C,0,2.56874804,-1.07444397,-1.72074527|
 C,0,4.5996602,-2.52373738,-1.35202387|C,0,5.41223755,3.14651536,1.2819
 3877|H,0,-1.90283419,1.49457228,-2.45163061|H,0,-0.22360403,2.73219123
 ,-0.97486776|H,0,-3.51812712,-0.62966246,-2.75230436|H,0,-3.14167016,-
 2.1776272,-2.04126038|H,0,1.16602646,1.44279892,-2.30201144|H,0,-4.885
 02603,-2.53336031,-0.44546262|H,0,-5.05494251,-1.47578913,0.93502219|H
 ,0,-4.474949,2.06474736,2.78919563|H,0,-8.21715836,-1.33581624,-0.6672
 2399|H,0,-7.37655728,-1.69964067,0.82075726|H,0,-7.20664108,-2.7572120
 2,-0.55972744|H,0,1.59100571,-0.67590138,-1.89419206|H,0,6.43375034,-3
 .30646965,-0.94663104|H,0,5.57083836,-4.18181324,-2.0217232|H,0,5.8850
 7097,3.26517253,0.32944256|H,0,5.29648846,4.10440995,1.74447536|H,0,6.
 01657773,2.52046159,1.90461818||Version=IA32W-G03RevC.01|State=1-A|HF=
 -2093.3512497|RMSD=9.523e-009|Dipole=-0.3917601,-0.2110448,-2.9099027|
 PG=C01 [X(C15H17N5O6S2)]||@


 E PUR SI MUOVE    -- GALILEO GALILEI
 Job cpu time:  0 days  0 hours  8 minutes 54.0 seconds.
 File lengths (MBytes):  RWF=     57 Int=      0 D2E=      0 Chk=     11 Scr=      1
 Normal termination of Gaussian 03 at Sat Dec 11 20:48:35 2021.
