 Entering Link 1 = C:\G03W\l1.exe PID=      1944.
  
 Copyright (c) 1988,1990,1992,1993,1995,1998,2003,2004, Gaussian, Inc.
                  All Rights Reserved.
  
 This is the Gaussian(R) 03 program.  It is based on the
 the Gaussian(R) 98 system (copyright 1998, Gaussian, Inc.),
 the Gaussian(R) 94 system (copyright 1995, Gaussian, Inc.),
 the Gaussian 92(TM) system (copyright 1992, Gaussian, Inc.),
 the Gaussian 90(TM) system (copyright 1990, Gaussian, Inc.),
 the Gaussian 88(TM) system (copyright 1988, Gaussian, Inc.),
 the Gaussian 86(TM) system (copyright 1986, Carnegie Mellon
 University), and the Gaussian 82(TM) system (copyright 1983,
 Carnegie Mellon University). Gaussian is a federally registered
 trademark of Gaussian, Inc.
  
 This software contains proprietary and confidential information,
 including trade secrets, belonging to Gaussian, Inc.
  
 This software is provided under written license and may be
 used, copied, transmitted, or stored only in accord with that
 written license.
  
 The following legend is applicable only to US Government
 contracts under FAR:
  
                    RESTRICTED RIGHTS LEGEND
  
 Use, reproduction and disclosure by the US Government is
 subject to restrictions as set forth in subparagraphs (a)
 and (c) of the Commercial Computer Software - Restricted
 Rights clause in FAR 52.227-19.
  
 Gaussian, Inc.
 340 Quinnipiac St., Bldg. 40, Wallingford CT 06492
  
  
 ---------------------------------------------------------------
 Warning -- This program may not be used in any manner that
 competes with the business of Gaussian, Inc. or will provide
 assistance to any competitor of Gaussian, Inc.  The licensee
 of this program is prohibited from giving any competitor of
 Gaussian, Inc. access to this program.  By using this program,
 the user acknowledges that Gaussian, Inc. is engaged in the
 business of creating and licensing software in the field of
 computational chemistry and represents and warrants to the
 licensee that it is not a competitor of Gaussian, Inc. and that
 it will not use this program in any manner prohibited above.
 ---------------------------------------------------------------
  

 Cite this work as:
 Gaussian 03, Revision C.01,
 M. J. Frisch, G. W. Trucks, H. B. Schlegel, G. E. Scuseria, 
 M. A. Robb, J. R. Cheeseman, J. A. Montgomery, Jr., T. Vreven, 
 K. N. Kudin, J. C. Burant, J. M. Millam, S. S. Iyengar, J. Tomasi, 
 V. Barone, B. Mennucci, M. Cossi, G. Scalmani, N. Rega, 
 G. A. Petersson, H. Nakatsuji, M. Hada, M. Ehara, K. Toyota, 
 R. Fukuda, J. Hasegawa, M. Ishida, T. Nakajima, Y. Honda, O. Kitao, 
 H. Nakai, M. Klene, X. Li, J. E. Knox, H. P. Hratchian, J. B. Cross, 
 C. Adamo, J. Jaramillo, R. Gomperts, R. E. Stratmann, O. Yazyev, 
 A. J. Austin, R. Cammi, C. Pomelli, J. W. Ochterski, P. Y. Ayala, 
 K. Morokuma, G. A. Voth, P. Salvador, J. J. Dannenberg, 
 V. G. Zakrzewski, S. Dapprich, A. D. Daniels, M. C. Strain, 
 O. Farkas, D. K. Malick, A. D. Rabuck, K. Raghavachari, 
 J. B. Foresman, J. V. Ortiz, Q. Cui, A. G. Baboul, S. Clifford, 
 J. Cioslowski, B. B. Stefanov, G. Liu, A. Liashenko, P. Piskorz, 
 I. Komaromi, R. L. Martin, D. J. Fox, T. Keith, M. A. Al-Laham, 
 C. Y. Peng, A. Nanayakkara, M. Challacombe, P. M. W. Gill, 
 B. Johnson, W. Chen, M. W. Wong, C. Gonzalez, and J. A. Pople, 
 Gaussian, Inc., Wallingford CT, 2004.
 
 ******************************************
 Gaussian 03:  IA32W-G03RevC.01  3-Apr-2004
                09-Dec-2021 
 ******************************************
 %mem=512MB
 %chk=C:\Users\moaz\Documents\ceftriaxone\ceftriaxone.chk
 Default route:  MaxDisk=2000MB
 --------------------------------
 # opt freq am1 geom=connectivity
 --------------------------------
 1/14=-1,18=50,26=3,38=1,57=2/1,3;
 2/9=110,17=6,18=5,40=1/2;
 3/5=2,11=9,12=1,16=1,25=1,30=1/1;
 4/5=3,11=1,20=5,22=1,24=3,35=1/1,2;
 6/7=2,8=2,9=2,10=2/1;
 7//16;
 1/14=-1,18=50/3(1);
 99//99;
 2/9=110/2;
 3/5=2,11=9,12=1,16=1,25=1,30=1/1;
 4/5=5,11=1,16=3,20=5,22=1,24=3,35=1/1,2;
 7//16;
 1/14=-1,18=50/3(-4);
 2/9=110/2;
 6/7=2,8=2,9=2,10=2/1;
 99//99;
 -----------------------
 opt_freq of ceftriaxone
 -----------------------
 Symbolic Z-matrix:
 Charge =  0 Multiplicity = 1
 S                    -0.57849   0.28236   2.06884 
 S                     3.45694  -0.45244  -0.07508 
 S                    -3.7219   -3.47083   2.06152 
 O                    -1.57387   1.287    -1.44678 
 O                     1.08437   3.35795  -1.85596 
 O                     2.98178   2.22661  -1.11575 
 O                    -4.73554   1.96107  -0.39334 
 O                    -6.4529    0.76389  -1.67484 
 O                     8.02965  -2.26001   1.0125 
 O                     8.95773  -1.60085  -1.58266 
 N                    -0.37697   2.4179    0.53029 
 N                    -3.40975   0.8822    1.24155 
 N                     5.82189  -0.08822  -1.56932 
 N                    -6.15522  -0.38956  -1.01877 
 N                     5.86573  -1.47364   0.43832 
 N                     6.76931  -0.92155  -2.20855 
 N                    -5.59309  -2.99932   0.37086 
 N                    -5.81025  -5.26785   1.28391 
 C                    -1.12719   1.91384   1.7148 
 C                    -2.39277   1.89136   0.91275 
 C                    -1.47455   1.75751  -0.28388 
 C                     1.05249   2.02387   0.34359 
 C                     1.76574   1.23082   1.21874 
 C                     1.11578   0.56692   2.45005 
 C                     3.26281   0.98986   0.94985 
 C                     1.7782    2.53432  -0.91513 
 C                    -4.4618    0.89402   0.21498 
 C                    -5.22885  -0.39966  -0.11595 
 C                     5.18735  -0.73072  -0.38598 
 C                    -4.8929   -1.7055    0.62798 
 C                    -3.93968  -1.79123   1.59054 
 C                     4.77942   0.23216  -2.55495 
 C                     7.2654   -1.75856   0.14762 
 C                     7.75548  -1.4291   -1.253 
 C                    -5.16404  -3.95349   1.15858 
 C                    -7.47334   1.46771  -0.96193 
 H                    -1.10061   2.44587   2.64278 
 H                    -2.91722   2.82361   0.88508 
 H                     1.60413  -0.35965   2.66888 
 H                     1.1946    1.21534   3.29754 
 H                    -3.81153   1.09187   2.13296 
 H                     3.77218   0.8386    1.87859 
 H                     3.67693   1.8407    0.45039 
 H                     1.70728   3.95084  -2.28268 
 H                    -3.40486  -0.96143   2.00327 
 H                     7.23183  -0.38831  -2.91688 
 H                     4.056     0.88312  -2.11018 
 H                     4.29978  -0.66996  -2.8728 
 H                     5.22367   0.7165   -3.39931 
 H                    -8.34963   0.85704  -0.89797 
 H                    -7.12605   1.69753   0.0237 
 H                    -7.70789   2.37516  -1.47808 
 H                    -6.24783  -5.50813   0.41743 
 H                    -5.12256  -5.95695   1.51242 
 

 GradGradGradGradGradGradGradGradGradGradGradGradGradGradGradGradGradGrad
 Berny optimization.
 Initialization pass.
                           ----------------------------
                           !    Initial Parameters    !
                           ! (Angstroms and Degrees)  !
 --------------------------                            --------------------------
 ! Name  Definition              Value          Derivative Info.                !
 --------------------------------------------------------------------------------
 ! R1    R(1,19)                 1.7573         estimate D2E/DX2                !
 ! R2    R(1,24)                 1.7598         estimate D2E/DX2                !
 ! R3    R(2,25)                 1.78           estimate D2E/DX2                !
 ! R4    R(2,29)                 1.78           estimate D2E/DX2                !
 ! R5    R(3,31)                 1.7579         estimate D2E/DX2                !
 ! R6    R(3,35)                 1.7686         estimate D2E/DX2                !
 ! R7    R(4,21)                 1.2584         estimate D2E/DX2                !
 ! R8    R(5,26)                 1.43           estimate D2E/DX2                !
 ! R9    R(5,44)                 0.96           estimate D2E/DX2                !
 ! R10   R(6,26)                 1.2584         estimate D2E/DX2                !
 ! R11   R(7,27)                 1.2584         estimate D2E/DX2                !
 ! R12   R(8,14)                 1.36           estimate D2E/DX2                !
 ! R13   R(8,36)                 1.43           estimate D2E/DX2                !
 ! R14   R(9,33)                 1.2584         estimate D2E/DX2                !
 ! R15   R(10,34)                1.2584         estimate D2E/DX2                !
 ! R16   R(11,19)                1.49           estimate D2E/DX2                !
 ! R17   R(11,21)                1.5178         estimate D2E/DX2                !
 ! R18   R(11,22)                1.4945         estimate D2E/DX2                !
 ! R19   R(12,20)                1.4699         estimate D2E/DX2                !
 ! R20   R(12,27)                1.47           estimate D2E/DX2                !
 ! R21   R(12,41)                1.0            estimate D2E/DX2                !
 ! R22   R(12,45)                1.9948         estimate D2E/DX2                !
 ! R23   R(13,16)                1.4145         estimate D2E/DX2                !
 ! R24   R(13,29)                1.4885         estimate D2E/DX2                !
 ! R25   R(13,32)                1.47           estimate D2E/DX2                !
 ! R26   R(14,28)                1.2936         estimate D2E/DX2                !
 ! R27   R(15,29)                1.3006         estimate D2E/DX2                !
 ! R28   R(15,33)                1.4577         estimate D2E/DX2                !
 ! R29   R(16,34)                1.464          estimate D2E/DX2                !
 ! R30   R(16,46)                1.0            estimate D2E/DX2                !
 ! R31   R(17,30)                1.4934         estimate D2E/DX2                !
 ! R32   R(17,35)                1.3096         estimate D2E/DX2                !
 ! R33   R(18,35)                1.47           estimate D2E/DX2                !
 ! R34   R(18,53)                1.0            estimate D2E/DX2                !
 ! R35   R(18,54)                1.0            estimate D2E/DX2                !
 ! R36   R(19,20)                1.4985         estimate D2E/DX2                !
 ! R37   R(19,37)                1.07           estimate D2E/DX2                !
 ! R38   R(20,21)                1.5142         estimate D2E/DX2                !
 ! R39   R(20,38)                1.07           estimate D2E/DX2                !
 ! R40   R(22,23)                1.3797         estimate D2E/DX2                !
 ! R41   R(22,26)                1.54           estimate D2E/DX2                !
 ! R42   R(23,24)                1.5425         estimate D2E/DX2                !
 ! R43   R(23,25)                1.54           estimate D2E/DX2                !
 ! R44   R(24,39)                1.07           estimate D2E/DX2                !
 ! R45   R(24,40)                1.07           estimate D2E/DX2                !
 ! R46   R(25,42)                1.07           estimate D2E/DX2                !
 ! R47   R(25,43)                1.07           estimate D2E/DX2                !
 ! R48   R(27,28)                1.54           estimate D2E/DX2                !
 ! R49   R(28,30)                1.54           estimate D2E/DX2                !
 ! R50   R(30,31)                1.3574         estimate D2E/DX2                !
 ! R51   R(31,45)                1.07           estimate D2E/DX2                !
 ! R52   R(32,47)                1.07           estimate D2E/DX2                !
 ! R53   R(32,48)                1.07           estimate D2E/DX2                !
 ! R54   R(32,49)                1.07           estimate D2E/DX2                !
 ! R55   R(33,34)                1.52           estimate D2E/DX2                !
 ! R56   R(36,50)                1.07           estimate D2E/DX2                !
 ! R57   R(36,51)                1.07           estimate D2E/DX2                !
 ! R58   R(36,52)                1.07           estimate D2E/DX2                !
 ! A1    A(19,1,24)            101.1941         estimate D2E/DX2                !
 ! A2    A(25,2,29)            109.4675         estimate D2E/DX2                !
 ! A3    A(31,3,35)             91.3151         estimate D2E/DX2                !
 ! A4    A(26,5,44)            109.4713         estimate D2E/DX2                !
 ! A5    A(14,8,36)            109.4593         estimate D2E/DX2                !
 ! A6    A(19,11,21)            85.1316         estimate D2E/DX2                !
 ! A7    A(19,11,22)           119.4547         estimate D2E/DX2                !
 ! A8    A(21,11,22)           120.661          estimate D2E/DX2                !
 ! A9    A(20,12,27)           109.4766         estimate D2E/DX2                !
 ! A10   A(20,12,41)           109.4762         estimate D2E/DX2                !
 ! A11   A(27,12,41)           109.4685         estimate D2E/DX2                !
 ! A12   A(16,13,29)           112.9859         estimate D2E/DX2                !
 ! A13   A(16,13,32)           107.4813         estimate D2E/DX2                !
 ! A14   A(29,13,32)           108.953          estimate D2E/DX2                !
 ! A15   A(8,14,28)            120.0044         estimate D2E/DX2                !
 ! A16   A(29,15,33)           119.0835         estimate D2E/DX2                !
 ! A17   A(13,16,34)           111.13           estimate D2E/DX2                !
 ! A18   A(13,16,46)           108.4069         estimate D2E/DX2                !
 ! A19   A(34,16,46)           109.6115         estimate D2E/DX2                !
 ! A20   A(30,17,35)           111.9658         estimate D2E/DX2                !
 ! A21   A(35,18,53)           109.4706         estimate D2E/DX2                !
 ! A22   A(35,18,54)           109.4707         estimate D2E/DX2                !
 ! A23   A(53,18,54)           109.4715         estimate D2E/DX2                !
 ! A24   A(1,19,11)            108.4831         estimate D2E/DX2                !
 ! A25   A(1,19,20)            110.9534         estimate D2E/DX2                !
 ! A26   A(1,19,37)            106.2085         estimate D2E/DX2                !
 ! A27   A(11,19,20)            90.2763         estimate D2E/DX2                !
 ! A28   A(11,19,37)           120.5808         estimate D2E/DX2                !
 ! A29   A(20,19,37)           119.5143         estimate D2E/DX2                !
 ! A30   A(12,20,19)           118.352          estimate D2E/DX2                !
 ! A31   A(12,20,21)           122.3849         estimate D2E/DX2                !
 ! A32   A(12,20,38)           105.357          estimate D2E/DX2                !
 ! A33   A(19,20,21)            84.9608         estimate D2E/DX2                !
 ! A34   A(19,20,38)           114.5016         estimate D2E/DX2                !
 ! A35   A(21,20,38)           110.7192         estimate D2E/DX2                !
 ! A36   A(4,21,11)            135.6811         estimate D2E/DX2                !
 ! A37   A(4,21,20)            135.681          estimate D2E/DX2                !
 ! A38   A(11,21,20)            88.6332         estimate D2E/DX2                !
 ! A39   A(11,22,23)           124.5261         estimate D2E/DX2                !
 ! A40   A(11,22,26)           117.7396         estimate D2E/DX2                !
 ! A41   A(23,22,26)           117.734          estimate D2E/DX2                !
 ! A42   A(22,23,24)           122.4052         estimate D2E/DX2                !
 ! A43   A(22,23,25)           118.7989         estimate D2E/DX2                !
 ! A44   A(24,23,25)           118.7938         estimate D2E/DX2                !
 ! A45   A(1,24,23)            107.5993         estimate D2E/DX2                !
 ! A46   A(1,24,39)            110.1018         estimate D2E/DX2                !
 ! A47   A(1,24,40)            109.9062         estimate D2E/DX2                !
 ! A48   A(23,24,39)           110.0991         estimate D2E/DX2                !
 ! A49   A(23,24,40)           109.901          estimate D2E/DX2                !
 ! A50   A(39,24,40)           109.2177         estimate D2E/DX2                !
 ! A51   A(2,25,23)            109.4718         estimate D2E/DX2                !
 ! A52   A(2,25,42)            109.4711         estimate D2E/DX2                !
 ! A53   A(2,25,43)            109.4712         estimate D2E/DX2                !
 ! A54   A(23,25,42)           109.4716         estimate D2E/DX2                !
 ! A55   A(23,25,43)           109.4707         estimate D2E/DX2                !
 ! A56   A(42,25,43)           109.471          estimate D2E/DX2                !
 ! A57   A(5,26,6)             120.0002         estimate D2E/DX2                !
 ! A58   A(5,26,22)            120.0016         estimate D2E/DX2                !
 ! A59   A(6,26,22)            119.9982         estimate D2E/DX2                !
 ! A60   A(7,27,12)            120.0062         estimate D2E/DX2                !
 ! A61   A(7,27,28)            120.0066         estimate D2E/DX2                !
 ! A62   A(12,27,28)           119.9872         estimate D2E/DX2                !
 ! A63   A(14,28,27)           120.0081         estimate D2E/DX2                !
 ! A64   A(14,28,30)           119.9998         estimate D2E/DX2                !
 ! A65   A(27,28,30)           119.9921         estimate D2E/DX2                !
 ! A66   A(2,29,13)            119.0635         estimate D2E/DX2                !
 ! A67   A(2,29,15)            119.0554         estimate D2E/DX2                !
 ! A68   A(13,29,15)           121.8732         estimate D2E/DX2                !
 ! A69   A(17,30,28)           123.3105         estimate D2E/DX2                !
 ! A70   A(17,30,31)           113.367          estimate D2E/DX2                !
 ! A71   A(28,30,31)           123.32           estimate D2E/DX2                !
 ! A72   A(3,31,30)            109.7137         estimate D2E/DX2                !
 ! A73   A(3,31,45)            125.1478         estimate D2E/DX2                !
 ! A74   A(30,31,45)           125.138          estimate D2E/DX2                !
 ! A75   A(13,32,47)           109.4717         estimate D2E/DX2                !
 ! A76   A(13,32,48)           109.4707         estimate D2E/DX2                !
 ! A77   A(13,32,49)           109.4709         estimate D2E/DX2                !
 ! A78   A(47,32,48)           109.4712         estimate D2E/DX2                !
 ! A79   A(47,32,49)           109.4715         estimate D2E/DX2                !
 ! A80   A(48,32,49)           109.4713         estimate D2E/DX2                !
 ! A81   A(9,33,15)            121.5998         estimate D2E/DX2                !
 ! A82   A(9,33,34)            121.5912         estimate D2E/DX2                !
 ! A83   A(15,33,34)           116.8079         estimate D2E/DX2                !
 ! A84   A(10,34,16)           121.3255         estimate D2E/DX2                !
 ! A85   A(10,34,33)           121.3215         estimate D2E/DX2                !
 ! A86   A(16,34,33)           117.3477         estimate D2E/DX2                !
 ! A87   A(3,35,17)            112.0486         estimate D2E/DX2                !
 ! A88   A(3,35,18)            123.9822         estimate D2E/DX2                !
 ! A89   A(17,35,18)           123.9681         estimate D2E/DX2                !
 ! A90   A(8,36,50)            109.4697         estimate D2E/DX2                !
 ! A91   A(8,36,51)            109.4713         estimate D2E/DX2                !
 ! A92   A(8,36,52)            109.4725         estimate D2E/DX2                !
 ! A93   A(50,36,51)           109.4712         estimate D2E/DX2                !
 ! A94   A(50,36,52)           109.4715         estimate D2E/DX2                !
 ! A95   A(51,36,52)           109.4712         estimate D2E/DX2                !
 ! D1    D(24,1,19,11)          62.5545         estimate D2E/DX2                !
 ! D2    D(24,1,19,20)         160.2233         estimate D2E/DX2                !
 ! D3    D(19,1,24,23)         -58.5742         estimate D2E/DX2                !
 ! D4    D(19,1,24,39)        -178.5741         estimate D2E/DX2                !
 ! D5    D(29,2,25,23)         179.9928         estimate D2E/DX2                !
 ! D6    D(29,2,25,42)         -60.0065         estimate D2E/DX2                !
 ! D7    D(25,2,29,13)         -89.4851         estimate D2E/DX2                !
 ! D8    D(25,2,29,15)          89.5088         estimate D2E/DX2                !
 ! D9    D(35,3,31,30)         -10.5763         estimate D2E/DX2                !
 ! D10   D(35,3,31,45)         169.1729         estimate D2E/DX2                !
 ! D11   D(31,3,35,17)          11.9647         estimate D2E/DX2                !
 ! D12   D(31,3,35,18)        -167.6644         estimate D2E/DX2                !
 ! D13   D(44,5,26,6)          -29.9996         estimate D2E/DX2                !
 ! D14   D(44,5,26,22)         150.0016         estimate D2E/DX2                !
 ! D15   D(36,8,14,28)         -90.0238         estimate D2E/DX2                !
 ! D16   D(14,8,36,50)         -59.986          estimate D2E/DX2                !
 ! D17   D(14,8,36,51)          60.013          estimate D2E/DX2                !
 ! D18   D(21,11,19,1)          87.3814         estimate D2E/DX2                !
 ! D19   D(21,11,19,20)        -24.8702         estimate D2E/DX2                !
 ! D20   D(22,11,19,1)         -35.2802         estimate D2E/DX2                !
 ! D21   D(19,11,21,4)        -154.6596         estimate D2E/DX2                !
 ! D22   D(19,11,21,20)         24.6013         estimate D2E/DX2                !
 ! D23   D(22,11,21,4)         -33.1106         estimate D2E/DX2                !
 ! D24   D(19,11,22,23)         -1.4968         estimate D2E/DX2                !
 ! D25   D(19,11,22,26)        178.2819         estimate D2E/DX2                !
 ! D26   D(21,11,22,23)       -104.2931         estimate D2E/DX2                !
 ! D27   D(27,12,20,19)       -171.1401         estimate D2E/DX2                !
 ! D28   D(27,12,20,21)        -68.1925         estimate D2E/DX2                !
 ! D29   D(41,12,20,19)         68.8569         estimate D2E/DX2                !
 ! D30   D(20,12,27,7)         -30.0747         estimate D2E/DX2                !
 ! D31   D(20,12,27,28)        149.9225         estimate D2E/DX2                !
 ! D32   D(41,12,27,7)          89.9331         estimate D2E/DX2                !
 ! D33   D(29,13,16,34)        -52.5509         estimate D2E/DX2                !
 ! D34   D(29,13,16,46)       -173.0716         estimate D2E/DX2                !
 ! D35   D(32,13,16,34)       -172.7814         estimate D2E/DX2                !
 ! D36   D(16,13,29,2)        -141.8156         estimate D2E/DX2                !
 ! D37   D(16,13,29,15)         39.2201         estimate D2E/DX2                !
 ! D38   D(32,13,29,2)         -22.4306         estimate D2E/DX2                !
 ! D39   D(16,13,32,47)       -178.6267         estimate D2E/DX2                !
 ! D40   D(16,13,32,48)         61.3733         estimate D2E/DX2                !
 ! D41   D(29,13,32,47)         58.6192         estimate D2E/DX2                !
 ! D42   D(8,14,28,27)          -0.0702         estimate D2E/DX2                !
 ! D43   D(8,14,28,30)         179.9335         estimate D2E/DX2                !
 ! D44   D(33,15,29,2)         176.8654         estimate D2E/DX2                !
 ! D45   D(33,15,29,13)         -4.1703         estimate D2E/DX2                !
 ! D46   D(29,15,33,9)         167.0063         estimate D2E/DX2                !
 ! D47   D(29,15,33,34)        -13.368          estimate D2E/DX2                !
 ! D48   D(13,16,34,10)       -144.827          estimate D2E/DX2                !
 ! D49   D(13,16,34,33)         35.9976         estimate D2E/DX2                !
 ! D50   D(46,16,34,10)        -25.0204         estimate D2E/DX2                !
 ! D51   D(35,17,30,28)       -177.7659         estimate D2E/DX2                !
 ! D52   D(35,17,30,31)          1.6674         estimate D2E/DX2                !
 ! D53   D(30,17,35,3)          -9.801          estimate D2E/DX2                !
 ! D54   D(30,17,35,18)        169.8282         estimate D2E/DX2                !
 ! D55   D(53,18,35,3)        -150.2038         estimate D2E/DX2                !
 ! D56   D(53,18,35,17)         30.2106         estimate D2E/DX2                !
 ! D57   D(54,18,35,3)         -30.2042         estimate D2E/DX2                !
 ! D58   D(1,19,20,12)          39.272          estimate D2E/DX2                !
 ! D59   D(1,19,20,21)         -85.0184         estimate D2E/DX2                !
 ! D60   D(11,19,20,12)        149.2295         estimate D2E/DX2                !
 ! D61   D(12,20,21,4)          34.2312         estimate D2E/DX2                !
 ! D62   D(12,20,21,11)       -145.0297         estimate D2E/DX2                !
 ! D63   D(19,20,21,4)         154.8022         estimate D2E/DX2                !
 ! D64   D(11,22,23,24)          4.9136         estimate D2E/DX2                !
 ! D65   D(11,22,23,25)       -175.6191         estimate D2E/DX2                !
 ! D66   D(26,22,23,24)       -174.865          estimate D2E/DX2                !
 ! D67   D(11,22,26,5)           0.1042         estimate D2E/DX2                !
 ! D68   D(11,22,26,6)        -179.8946         estimate D2E/DX2                !
 ! D69   D(23,22,26,5)         179.8982         estimate D2E/DX2                !
 ! D70   D(22,23,24,1)          28.9487         estimate D2E/DX2                !
 ! D71   D(22,23,24,39)        148.9503         estimate D2E/DX2                !
 ! D72   D(25,23,24,1)        -150.5187         estimate D2E/DX2                !
 ! D73   D(22,23,25,2)         -89.7443         estimate D2E/DX2                !
 ! D74   D(22,23,25,42)        150.2553         estimate D2E/DX2                !
 ! D75   D(24,23,25,2)          89.7425         estimate D2E/DX2                !
 ! D76   D(7,27,28,14)          -0.0394         estimate D2E/DX2                !
 ! D77   D(7,27,28,30)         179.957          estimate D2E/DX2                !
 ! D78   D(12,27,28,14)        179.9634         estimate D2E/DX2                !
 ! D79   D(14,28,30,17)         -0.2876         estimate D2E/DX2                !
 ! D80   D(14,28,30,31)       -179.665          estimate D2E/DX2                !
 ! D81   D(27,28,30,17)        179.716          estimate D2E/DX2                !
 ! D82   D(17,30,31,3)           7.2237         estimate D2E/DX2                !
 ! D83   D(17,30,31,45)       -172.5255         estimate D2E/DX2                !
 ! D84   D(28,30,31,3)        -173.3431         estimate D2E/DX2                !
 ! D85   D(9,33,34,10)          -2.656          estimate D2E/DX2                !
 ! D86   D(9,33,34,16)         176.5195         estimate D2E/DX2                !
 ! D87   D(15,33,34,10)        177.7183         estimate D2E/DX2                !
 --------------------------------------------------------------------------------
 Trust Radius=3.00D-01 FncErr=1.00D-07 GrdErr=1.00D-06
 Number of steps in this run= 250 maximum allowed number of steps= 324.
 GradGradGradGradGradGradGradGradGradGradGradGradGradGradGradGradGradGrad

 Stoichiometry    C18H18N8O7S3
 Framework group  C1[X(C18H18N8O7S3)]
 Deg. of freedom   156
 Full point group                 C1      NOp   1
 Largest Abelian subgroup         C1      NOp   1
 Largest concise Abelian subgroup C1      NOp   1
                         Standard orientation:                         
 ---------------------------------------------------------------------
 Center     Atomic     Atomic              Coordinates (Angstroms)
 Number     Number      Type              X           Y           Z
 ---------------------------------------------------------------------
    1         16             0        0.771640    0.142936    1.932206
    2         16             0       -3.427130    0.434204    0.006963
    3         16             0        4.000676    3.555031    0.554362
    4          8             0        1.402444   -1.898349   -1.197471
    5          8             0       -1.337654   -3.852316   -0.754294
    6          8             0       -3.125222   -2.453588   -0.228773
    7          8             0        4.630185   -2.403702   -0.255880
    8          8             0        6.250390   -1.728019   -1.971454
    9          8             0       -7.825861    2.724046    0.883115
   10          8             0       -9.012760    1.385334   -1.314564
   11          7             0        0.367760   -2.335233    1.117456
   12          7             0        3.494667   -0.824043    1.089423
   13          7             0       -5.931806   -0.223542   -1.112120
   14          7             0        6.047428   -0.418820   -1.664347
   15          7             0       -5.748030    1.688921    0.391430
   16          7             0       -6.912548    0.435979   -1.889196
   17          7             0        5.690100    2.509596   -1.068872
   18          7             0        6.053967    4.930885   -0.889995
   19          6             0        1.240036   -1.547774    2.033435
   20          6             0        2.424212   -1.829028    1.159307
   21          6             0        1.400878   -2.001976    0.056661
   22          6             0       -1.061759   -1.936799    0.940850
   23          6             0       -1.667302   -0.885241    1.597424
   24          6             0       -0.886055    0.073904    2.518841
   25          6             0       -3.176025   -0.653359    1.393521
   26          6             0       -1.916826   -2.753393   -0.045875
   27          6             0        4.444191   -1.192255    0.029405
   28          6             0        5.211222   -0.095216   -0.731941
   29          6             0       -5.171018    0.701977   -0.228741
   30          6             0        4.982618    1.387232   -0.383226
   31          6             0        4.127389    1.801964    0.585845
   32          6             0       -4.996298   -0.873850   -2.040983
   33          6             0       -7.160695    1.951145    0.145724
   34          6             0       -7.789810    1.253162   -1.049055
   35          6             0        5.363468    3.674107   -0.566640
   36          6             0        7.314262   -2.246264   -1.168656
   37          1             0        1.286964   -1.782774    3.076257
   38          1             0        2.918266   -2.755371    1.365947
   39          1             0       -1.326263    1.048812    2.492810
   40          1             0       -0.901868   -0.292956    3.523859
   41          1             0        3.973144   -0.785017    1.966653
   42          1             0       -3.590976   -0.209828    2.274426
   43          1             0       -3.658408   -1.589551    1.204439
   44          1             0       -2.013942   -4.509714   -0.933375
   45          1             0        3.611747    1.159252    1.268464
   46          1             0       -7.454255   -0.255488   -2.367129
   47          1             0       -4.251937   -1.404108   -1.484518
   48          1             0       -4.524639   -0.131367   -2.650203
   49          1             0       -5.531373   -1.559423   -2.664346
   50          1             0        8.208882   -1.691646   -1.360905
   51          1             0        7.055670   -2.158628   -0.134077
   52          1             0        7.474291   -3.276260   -1.410284
   53          1             0        6.413965    4.883239   -1.821735
   54          1             0        5.409878    5.692625   -0.820047
 ---------------------------------------------------------------------
 Rotational constants (GHZ):      0.1565360      0.0381414      0.0340179
 Standard basis: VSTO-3G (5D, 7F)
 There are   162 symmetry adapted basis functions of A   symmetry.
 Integral buffers will be    262144 words long.
 Raffenetti 1 integral format.
 Two-electron integral symmetry is turned on.
   162 basis functions,   486 primitive gaussians,   162 cartesian basis functions
    95 alpha electrons       95 beta electrons
       nuclear repulsion energy      1924.7219338819 Hartrees.
 NAtoms=   54 NActive=   54 NUniq=   54 SFac= 1.00D+00 NAtFMM=   60 Big=F
 Simple Huckel Guess.
 Initial guess orbital symmetries:
       Occupied  (A) (A) (A) (A) (A) (A) (A) (A) (A) (A) (A) (A)
                 (A) (A) (A) (A) (A) (A) (A) (A) (A) (A) (A) (A)
                 (A) (A) (A) (A) (A) (A) (A) (A) (A) (A) (A) (A)
                 (A) (A) (A) (A) (A) (A) (A) (A) (A) (A) (A) (A)
                 (A) (A) (A) (A) (A) (A) (A) (A) (A) (A) (A) (A)
                 (A) (A) (A) (A) (A) (A) (A) (A) (A) (A) (A) (A)
                 (A) (A) (A) (A) (A) (A) (A) (A) (A) (A) (A) (A)
                 (A) (A) (A) (A) (A) (A) (A) (A) (A) (A) (A)
       Virtual   (A) (A) (A) (A) (A) (A) (A) (A) (A) (A) (A) (A)
                 (A) (A) (A) (A) (A) (A) (A) (A) (A) (A) (A) (A)
                 (A) (A) (A) (A) (A) (A) (A) (A) (A) (A) (A) (A)
                 (A) (A) (A) (A) (A) (A) (A) (A) (A) (A) (A) (A)
                 (A) (A) (A) (A) (A) (A) (A) (A) (A) (A) (A) (A)
                 (A) (A) (A) (A) (A) (A) (A)
 The electronic state of the initial guess is 1-A.
 RHF-AM1 calculation of energy and first derivatives.
 MO and density RWFs will be updated without deorthogonalization.
 Closed-shell calculation:      95 occupied levels.
 NNHCO=    0.
 References:
  H: (AM1): M.J.S. DEWAR ET AL, J. AM. CHEM. SOC. 107 3902-3909 (1985)
  C: (AM1): M.J.S. DEWAR ET AL, J. AM. CHEM. SOC. 107 3902-3909 (1985)
  N: (AM1): M.J.S. DEWAR ET AL, J. AM. CHEM. SOC. 107 3902-3909 (1985)
  O: (AM1): M.J.S. DEWAR ET AL, J. AM. CHEM. SOC. 107 3902-3909 (1985)
  S: (AM1): M.J.S.DEWAR and Y-C YUAN, Inorg. Chem. 1990?
 Ext34=T Pulay=F Camp-King=F BShift= 0.00D+00
 It=  1 PL= 0.106D+01 DiagD=T ESCF=     93.850274 Diff= 0.895D+02 RMSDP= 0.120D+00.
 It=  2 PL= 0.109D+00 DiagD=T ESCF=     14.936524 Diff=-0.789D+02 RMSDP= 0.709D-02.
 It=  3 PL= 0.576D-01 DiagD=T ESCF=      6.975806 Diff=-0.796D+01 RMSDP= 0.457D-02.
 It=  4 PL= 0.230D-01 DiagD=F ESCF=      4.627811 Diff=-0.235D+01 RMSDP= 0.110D-02.
 It=  5 PL= 0.968D-02 DiagD=F ESCF=      5.247840 Diff= 0.620D+00 RMSDP= 0.526D-03.
 It=  6 PL= 0.666D-02 DiagD=F ESCF=      5.213030 Diff=-0.348D-01 RMSDP= 0.541D-03.
 It=  7 PL= 0.237D-02 DiagD=F ESCF=      5.185407 Diff=-0.276D-01 RMSDP= 0.966D-04.
 It=  8 PL= 0.146D-02 DiagD=F ESCF=      5.195254 Diff= 0.985D-02 RMSDP= 0.526D-04.
 It=  9 PL= 0.929D-03 DiagD=F ESCF=      5.194895 Diff=-0.359D-03 RMSDP= 0.769D-04.
 It= 10 PL= 0.138D-03 DiagD=F ESCF=      5.194403 Diff=-0.492D-03 RMSDP= 0.555D-05.
 It= 11 PL= 0.827D-04 DiagD=F ESCF=      5.194673 Diff= 0.269D-03 RMSDP= 0.274D-05.
 It= 12 PL= 0.512D-04 DiagD=F ESCF=      5.194672 Diff=-0.945D-06 RMSDP= 0.383D-05.
 It= 13 PL= 0.171D-04 DiagD=F ESCF=      5.194670 Diff=-0.128D-05 RMSDP= 0.565D-06.
 It= 14 PL= 0.105D-04 DiagD=F ESCF=      5.194671 Diff= 0.590D-06 RMSDP= 0.341D-06.
 It= 15 PL= 0.772D-05 DiagD=F ESCF=      5.194671 Diff=-0.146D-07 RMSDP= 0.631D-06.
 It= 16 PL= 0.207D-05 DiagD=F ESCF=      5.194671 Diff=-0.323D-07 RMSDP= 0.618D-07.
 Energy=    0.190904377466 NIter=  17.
 Dipole moment=       1.477969      -1.422571       2.038751

 **********************************************************************

            Population analysis using the SCF density.

 **********************************************************************

 Orbital symmetries:
       Occupied  (A) (A) (A) (A) (A) (A) (A) (A) (A) (A) (A) (A)
                 (A) (A) (A) (A) (A) (A) (A) (A) (A) (A) (A) (A)
                 (A) (A) (A) (A) (A) (A) (A) (A) (A) (A) (A) (A)
                 (A) (A) (A) (A) (A) (A) (A) (A) (A) (A) (A) (A)
                 (A) (A) (A) (A) (A) (A) (A) (A) (A) (A) (A) (A)
                 (A) (A) (A) (A) (A) (A) (A) (A) (A) (A) (A) (A)
                 (A) (A) (A) (A) (A) (A) (A) (A) (A) (A) (A) (A)
                 (A) (A) (A) (A) (A) (A) (A) (A) (A) (A) (A)
       Virtual   (A) (A) (A) (A) (A) (A) (A) (A) (A) (A) (A) (A)
                 (A) (A) (A) (A) (A) (A) (A) (A) (A) (A) (A) (A)
                 (A) (A) (A) (A) (A) (A) (A) (A) (A) (A) (A) (A)
                 (A) (A) (A) (A) (A) (A) (A) (A) (A) (A) (A) (A)
                 (A) (A) (A) (A) (A) (A) (A) (A) (A) (A) (A) (A)
                 (A) (A) (A) (A) (A) (A) (A)
 The electronic state is 1-A.
 Alpha  occ. eigenvalues --   -1.55352  -1.50787  -1.49948  -1.48530  -1.43701
 Alpha  occ. eigenvalues --   -1.42761  -1.42625  -1.40207  -1.39851  -1.37874
 Alpha  occ. eigenvalues --   -1.34798  -1.30802  -1.30674  -1.28681  -1.24575
 Alpha  occ. eigenvalues --   -1.20114  -1.15387  -1.12825  -1.11987  -1.04685
 Alpha  occ. eigenvalues --   -1.01559  -1.01102  -0.97700  -0.96146  -0.93833
 Alpha  occ. eigenvalues --   -0.90834  -0.89884  -0.89199  -0.81709  -0.78905
 Alpha  occ. eigenvalues --   -0.76826  -0.76421  -0.73668  -0.73147  -0.72710
 Alpha  occ. eigenvalues --   -0.71765  -0.70719  -0.69920  -0.68707  -0.68246
 Alpha  occ. eigenvalues --   -0.66415  -0.65918  -0.64619  -0.63775  -0.62970
 Alpha  occ. eigenvalues --   -0.62887  -0.62332  -0.61808  -0.61233  -0.60957
 Alpha  occ. eigenvalues --   -0.60633  -0.60427  -0.60266  -0.59800  -0.59134
 Alpha  occ. eigenvalues --   -0.58090  -0.57557  -0.57025  -0.56387  -0.55611
 Alpha  occ. eigenvalues --   -0.55385  -0.54949  -0.54608  -0.53786  -0.53291
 Alpha  occ. eigenvalues --   -0.52762  -0.52616  -0.51959  -0.51571  -0.51118
 Alpha  occ. eigenvalues --   -0.49432  -0.48775  -0.48322  -0.47884  -0.47752
 Alpha  occ. eigenvalues --   -0.47492  -0.47362  -0.46659  -0.45633  -0.45143
 Alpha  occ. eigenvalues --   -0.44124  -0.43850  -0.43633  -0.43177  -0.42490
 Alpha  occ. eigenvalues --   -0.41416  -0.40472  -0.39195  -0.38619  -0.38209
 Alpha  occ. eigenvalues --   -0.37988  -0.37334  -0.35794  -0.35079  -0.34186
 Alpha virt. eigenvalues --   -0.06012  -0.04229  -0.03644  -0.02825  -0.02061
 Alpha virt. eigenvalues --   -0.01151  -0.01136  -0.00772  -0.00525   0.00955
 Alpha virt. eigenvalues --    0.01038   0.01556   0.02285   0.02624   0.03051
 Alpha virt. eigenvalues --    0.03281   0.04213   0.04629   0.04779   0.05518
 Alpha virt. eigenvalues --    0.06058   0.06118   0.06267   0.07464   0.08197
 Alpha virt. eigenvalues --    0.08424   0.09453   0.09714   0.10054   0.10649
 Alpha virt. eigenvalues --    0.11043   0.11391   0.11726   0.11918   0.12085
 Alpha virt. eigenvalues --    0.12800   0.12947   0.13164   0.13637   0.13808
 Alpha virt. eigenvalues --    0.14037   0.14122   0.14392   0.14605   0.14896
 Alpha virt. eigenvalues --    0.14909   0.15196   0.15589   0.15906   0.16172
 Alpha virt. eigenvalues --    0.16462   0.16604   0.16617   0.16841   0.17016
 Alpha virt. eigenvalues --    0.17301   0.17728   0.18015   0.18901   0.19824
 Alpha virt. eigenvalues --    0.20047   0.20876   0.20900   0.21530   0.21868
 Alpha virt. eigenvalues --    0.22133   0.23601
          Condensed to atoms (all electrons):
 Mulliken atomic charges:
              1
     1  S    0.106323
     2  S    0.223880
     3  S    0.323017
     4  O   -0.211400
     5  O   -0.277481
     6  O   -0.355201
     7  O   -0.275919
     8  O   -0.183657
     9  O   -0.196667
    10  O   -0.255760
    11  N   -0.170953
    12  N   -0.293405
    13  N   -0.140303
    14  N    0.052449
    15  N   -0.179897
    16  N   -0.223179
    17  N   -0.127837
    18  N   -0.228246
    19  C   -0.177876
    20  C   -0.050741
    21  C    0.287821
    22  C   -0.036931
    23  C   -0.054291
    24  C   -0.240754
    25  C   -0.251081
    26  C    0.365425
    27  C    0.261119
    28  C    0.001123
    29  C   -0.034697
    30  C   -0.031160
    31  C   -0.328366
    32  C   -0.152408
    33  C    0.242588
    34  C    0.201961
    35  C   -0.140088
    36  C   -0.066895
    37  H    0.153697
    38  H    0.141614
    39  H    0.158824
    40  H    0.122187
    41  H    0.196853
    42  H    0.114411
    43  H    0.162537
    44  H    0.240454
    45  H    0.207513
    46  H    0.208539
    47  H    0.142912
    48  H    0.085548
    49  H    0.094654
    50  H    0.074880
    51  H    0.056183
    52  H    0.111125
    53  H    0.181180
    54  H    0.166380
 Sum of Mulliken charges=   0.00000
 Atomic charges with hydrogens summed into heavy atoms:
              1
     1  S    0.106323
     2  S    0.223880
     3  S    0.323017
     4  O   -0.211400
     5  O   -0.037027
     6  O   -0.355201
     7  O   -0.275919
     8  O   -0.183657
     9  O   -0.196667
    10  O   -0.255760
    11  N   -0.170953
    12  N   -0.096553
    13  N   -0.140303
    14  N    0.052449
    15  N   -0.179897
    16  N   -0.014640
    17  N   -0.127837
    18  N    0.119313
    19  C   -0.024180
    20  C    0.090873
    21  C    0.287821
    22  C   -0.036931
    23  C   -0.054291
    24  C    0.040257
    25  C    0.025867
    26  C    0.365425
    27  C    0.261119
    28  C    0.001123
    29  C   -0.034697
    30  C   -0.031160
    31  C   -0.120853
    32  C    0.170705
    33  C    0.242588
    34  C    0.201961
    35  C   -0.140088
    36  C    0.175292
    37  H    0.000000
    38  H    0.000000
    39  H    0.000000
    40  H    0.000000
    41  H    0.000000
    42  H    0.000000
    43  H    0.000000
    44  H    0.000000
    45  H    0.000000
    46  H    0.000000
    47  H    0.000000
    48  H    0.000000
    49  H    0.000000
    50  H    0.000000
    51  H    0.000000
    52  H    0.000000
    53  H    0.000000
    54  H    0.000000
 Sum of Mulliken charges=   0.00000
 ***** Axes restored to original set *****
 -------------------------------------------------------------------
 Center     Atomic                   Forces (Hartrees/Bohr)
 Number     Number              X              Y              Z
 -------------------------------------------------------------------
    1         16          -0.004448260   -0.039128861    0.018551489
    2         16           0.000236690   -0.013195077   -0.002753819
    3         16          -0.008026329    0.020041536    0.010107423
    4          8           0.013913436    0.038062161    0.084192129
    5          8           0.026078060   -0.045972453    0.058632673
    6          8          -0.069596413    0.047420351   -0.037861777
    7          8           0.010642432   -0.036289967    0.020309592
    8          8           0.017181209   -0.032511213    0.013014811
    9          8          -0.036232849    0.024772694   -0.041247763
   10          8          -0.048502342    0.004630768    0.008009638
   11          7           0.044611799   -0.030520636   -0.036970630
   12          7          -0.005978970    0.010340339   -0.044211534
   13          7          -0.021536353   -0.017848168   -0.001224999
   14          7          -0.017236033    0.004035056   -0.031365807
   15          7           0.020137375   -0.001150853    0.003190437
   16          7           0.022607477   -0.006159437    0.052016143
   17          7           0.000618961    0.083899874   -0.015929381
   18          7           0.032488747    0.051177575   -0.002763532
   19          6           0.046494745   -0.007896039    0.010155299
   20          6          -0.039804337   -0.043879564    0.006145918
   21          6           0.019395491   -0.012588769   -0.095246374
   22          6          -0.041798236    0.008838815   -0.011384407
   23          6           0.008550737   -0.005791420   -0.006249069
   24          6           0.002751311    0.037206722   -0.068854749
   25          6          -0.055633335   -0.027597867    0.019656723
   26          6          -0.006748094    0.012091467   -0.006580257
   27          6          -0.001451620    0.012241709    0.003574574
   28          6           0.027619333   -0.020627280    0.034231373
   29          6           0.020176190    0.008718821   -0.007012695
   30          6          -0.039391605   -0.020417786   -0.032162916
   31          6          -0.000992439   -0.046072849    0.001766437
   32          6           0.018819415   -0.004395477    0.014605129
   33          6           0.000977903   -0.021501626    0.039951024
   34          6           0.039913969    0.001662109   -0.024948223
   35          6           0.000188227   -0.041447029    0.006908088
   36          6           0.002283657   -0.004633177   -0.005211992
   37          1           0.002317283    0.029730349    0.018486850
   38          1          -0.014780789    0.045437300   -0.002077961
   39          1           0.012743335   -0.031035793    0.004519422
   40          1           0.005829026    0.021685163    0.026545712
   41          1          -0.001331743    0.000543688    0.005166512
   42          1           0.014198796   -0.005549341    0.031206676
   43          1           0.027405352    0.026053980    0.005734927
   44          1           0.009335383   -0.002819427   -0.003196400
   45          1           0.016044008   -0.001163155    0.009302106
   46          1           0.002899882    0.004752561   -0.009436252
   47          1          -0.021519783    0.021860925    0.014295994
   48          1          -0.023177312   -0.032153618   -0.016511421
   49          1           0.016388449    0.019713217   -0.030499542
   50          1          -0.034484236   -0.020762164    0.001556290
   51          1           0.011824914    0.012059344    0.036509215
   52          1           0.000698409    0.026708401   -0.024737303
   53          1          -0.004689076   -0.001077502   -0.001352118
   54          1           0.001988155    0.000501623    0.001448318
 -------------------------------------------------------------------
 Cartesian Forces:  Max     0.095246374 RMS     0.027223034

 GradGradGradGradGradGradGradGradGradGradGradGradGradGradGradGradGradGrad
 Berny optimization.
 Internal  Forces:  Max     0.125856892 RMS     0.026212287
 Search for a local minimum.
 Step number   1 out of a maximum of 250
 All quantities printed in internal units (Hartrees-Bohrs-Radians)
 Second derivative matrix not updated -- first step.
 RFO step:  Lambda= 2.43467005D-02.
 Linear search not attempted -- first point.
 Maximum step size (   0.300) exceeded in Quadratic search.
    -- Step size scaled by   0.826
 Iteration  1 RMS(Cart)=  0.10058462 RMS(Int)=  0.01045176
 Iteration  2 RMS(Cart)=  0.02345323 RMS(Int)=  0.00231077
 Iteration  3 RMS(Cart)=  0.00043196 RMS(Int)=  0.00227431
 Iteration  4 RMS(Cart)=  0.00000040 RMS(Int)=  0.00227431
 Variable       Old X    -DE/DX   Delta X   Delta X   Delta X     New X
                                 (Linear)    (Quad)   (Total)
    R1        3.32084   0.01212   0.00000   0.05651   0.05671   3.37755
    R2        3.32552  -0.01152   0.00000   0.00588   0.00572   3.33124
    R3        3.36371   0.00828   0.00000   0.02740   0.02740   3.39111
    R4        3.36371  -0.00946   0.00000  -0.00877  -0.00877   3.35494
    R5        3.32199  -0.03355   0.00000  -0.08486  -0.08507   3.23692
    R6        3.34221  -0.00711   0.00000  -0.01382  -0.01390   3.32831
    R7        2.37804  -0.09313   0.00000  -0.09466  -0.09466   2.28339
    R8        2.70233  -0.08176   0.00000  -0.16692  -0.16692   2.53540
    R9        1.81415   0.00574   0.00000   0.01766   0.01766   1.83180
   R10        2.37802  -0.07212   0.00000  -0.06541  -0.06541   2.31261
   R11        2.37804  -0.04290   0.00000  -0.04001  -0.04001   2.33803
   R12        2.56997  -0.02588   0.00000  -0.03545  -0.03545   2.53452
   R13        2.70230   0.02467   0.00000   0.04389   0.04389   2.74619
   R14        2.37803  -0.06023   0.00000  -0.06063  -0.06063   2.31740
   R15        2.37803  -0.04907   0.00000  -0.04934  -0.04934   2.32869
   R16        2.81561   0.00720   0.00000   0.02426   0.02422   2.83983
   R17        2.86820  -0.02442   0.00000  -0.05901  -0.05792   2.81029
   R18        2.82416  -0.06520   0.00000  -0.13959  -0.13960   2.68456
   R19        2.77780  -0.00626   0.00000  -0.00809  -0.00809   2.76971
   R20        2.77784  -0.02636   0.00000  -0.05919  -0.05908   2.71876
   R21        1.88972   0.00525   0.00000   0.01506   0.01506   1.90478
   R22        3.76962   0.00837   0.00000   0.10406   0.10447   3.87409
   R23        2.67292  -0.00379   0.00000  -0.01161  -0.01083   2.66209
   R24        2.81293  -0.01333   0.00000  -0.03566  -0.03636   2.77656
   R25        2.77787   0.01997   0.00000   0.01915   0.01915   2.79702
   R26        2.44451   0.02116   0.00000   0.02513   0.02513   2.46963
   R27        2.45782  -0.00235   0.00000  -0.00066  -0.00180   2.45602
   R28        2.75457  -0.03002   0.00000  -0.05091  -0.05144   2.70313
   R29        2.76651  -0.02586   0.00000  -0.06852  -0.06763   2.69888
   R30        1.88972   0.01056   0.00000   0.01959   0.01959   1.90931
   R31        2.82218  -0.07676   0.00000  -0.15182  -0.15165   2.67053
   R32        2.47475   0.01948   0.00000   0.04156   0.04173   2.51648
   R33        2.77786  -0.05857   0.00000  -0.10260  -0.10260   2.67526
   R34        1.88973   0.00348   0.00000   0.00610   0.00610   1.89584
   R35        1.88972   0.00135   0.00000   0.00695   0.00695   1.89666
   R36        2.83174   0.03720   0.00000   0.11225   0.11150   2.94324
   R37        2.02201   0.03087   0.00000   0.06507   0.06507   2.08708
   R38        2.86152   0.01843   0.00000   0.06667   0.06645   2.92796
   R39        2.02201   0.04689   0.00000   0.09816   0.09816   2.12016
   R40        2.60724   0.03642   0.00000  -0.00535  -0.00537   2.60186
   R41        2.91017  -0.02472   0.00000  -0.06823  -0.06823   2.84194
   R42        2.91491  -0.03419   0.00000  -0.07741  -0.07745   2.83745
   R43        2.91017  -0.02909   0.00000  -0.06676  -0.06676   2.84341
   R44        2.02201   0.03362   0.00000   0.07214   0.07214   2.09416
   R45        2.02201   0.03460   0.00000   0.07481   0.07481   2.09682
   R46        2.02200   0.03463   0.00000   0.06060   0.06060   2.08261
   R47        2.02201   0.02865   0.00000   0.07235   0.07235   2.09436
   R48        2.91010  -0.01729   0.00000  -0.02541  -0.02569   2.88441
   R49        2.91012  -0.05798   0.00000  -0.11129  -0.11168   2.79844
   R50        2.56510   0.01792   0.00000   0.02284   0.02272   2.58782
   R51        2.02204   0.01546   0.00000   0.03243   0.03264   2.05468
   R52        2.02201   0.03379   0.00000   0.07172   0.07172   2.09373
   R53        2.02200   0.04240   0.00000   0.08348   0.08348   2.10548
   R54        2.02200   0.03980   0.00000   0.08122   0.08122   2.10322
   R55        2.87242  -0.00269   0.00000  -0.00168  -0.00108   2.87134
   R56        2.02201   0.04018   0.00000   0.08062   0.08062   2.10264
   R57        2.02201   0.04006   0.00000   0.08300   0.08300   2.10501
   R58        2.02199   0.03443   0.00000   0.07367   0.07367   2.09567
    A1        1.76617  -0.03486   0.00000  -0.08572  -0.08616   1.68001
    A2        1.91057  -0.01773   0.00000  -0.00553  -0.00553   1.90503
    A3        1.59375  -0.01869   0.00000  -0.03089  -0.03662   1.55713
    A4        1.91063  -0.01147   0.00000  -0.07886  -0.07886   1.83177
    A5        1.91042   0.04123   0.00000   0.06867   0.06867   1.97910
    A6        1.48583   0.01783   0.00000   0.06801   0.06717   1.55300
    A7        2.08488   0.00796   0.00000   0.02567   0.02493   2.10980
    A8        2.10593  -0.00269   0.00000   0.03902   0.03489   2.14082
    A9        1.91073   0.02377   0.00000   0.06308   0.06333   1.97406
   A10        1.91072  -0.00445   0.00000  -0.02227  -0.02201   1.88871
   A11        1.91059  -0.00449   0.00000  -0.01988  -0.01936   1.89123
   A12        1.97198  -0.01319   0.00000   0.00667   0.00169   1.97366
   A13        1.87590   0.00666   0.00000   0.06555   0.06203   1.93793
   A14        1.90159   0.01934   0.00000   0.07563   0.07273   1.97432
   A15        2.09447   0.00304   0.00000  -0.02782  -0.02782   2.06665
   A16        2.07840   0.00081   0.00000   0.00890   0.00620   2.08460
   A17        1.93959   0.01681   0.00000   0.06143   0.06064   2.00023
   A18        1.89206  -0.00273   0.00000   0.01984   0.01552   1.90757
   A19        1.91308   0.00229   0.00000   0.03972   0.03679   1.94987
   A20        1.95417  -0.01964   0.00000  -0.02967  -0.03419   1.91999
   A21        1.91062   0.00464   0.00000   0.05145   0.04986   1.96048
   A22        1.91062  -0.00217   0.00000   0.03131   0.02969   1.94032
   A23        1.91064   0.00227   0.00000   0.01396   0.01115   1.92178
   A24        1.89339   0.01093   0.00000   0.03284   0.03431   1.92770
   A25        1.93650  -0.00137   0.00000   0.00935   0.01021   1.94671
   A26        1.85369   0.01981   0.00000   0.06026   0.05890   1.91259
   A27        1.57562  -0.01335   0.00000  -0.01698  -0.01942   1.55620
   A28        2.10453  -0.01815   0.00000  -0.04885  -0.04995   2.05458
   A29        2.08592  -0.00122   0.00000  -0.04199  -0.04310   2.04281
   A30        2.06563   0.00361   0.00000   0.00129   0.00186   2.06750
   A31        2.13602   0.00102   0.00000   0.00257   0.00179   2.13781
   A32        1.83883   0.00995   0.00000   0.03857   0.03896   1.87779
   A33        1.48285  -0.00575   0.00000  -0.00116  -0.00253   1.48031
   A34        1.99843  -0.00822   0.00000  -0.02565  -0.02538   1.97305
   A35        1.93241  -0.00498   0.00000  -0.02999  -0.02970   1.90271
   A36        2.36808  -0.01117   0.00000  -0.02944  -0.03476   2.33332
   A37        2.36808   0.00676   0.00000  -0.00107  -0.00763   2.36045
   A38        1.54694   0.00447   0.00000   0.02824   0.02462   1.57156
   A39        2.17339  -0.00935   0.00000  -0.01248  -0.01519   2.15820
   A40        2.05494  -0.11651   0.00000  -0.07533  -0.07977   1.97517
   A41        2.05485   0.12586   0.00000   0.08837   0.08285   2.13770
   A42        2.13637  -0.00997   0.00000  -0.00846  -0.00745   2.12893
   A43        2.07343   0.11775   0.00000   0.10143   0.10018   2.17361
   A44        2.07334  -0.10767   0.00000  -0.09251  -0.09369   1.97965
   A45        1.87796   0.02800   0.00000   0.08437   0.08684   1.96480
   A46        1.92164  -0.01750   0.00000  -0.06188  -0.06143   1.86021
   A47        1.91823   0.00380   0.00000  -0.01080  -0.01296   1.90527
   A48        1.92159  -0.00821   0.00000  -0.00848  -0.00861   1.91298
   A49        1.91813  -0.00418   0.00000   0.01447   0.01222   1.93035
   A50        1.90621  -0.00169   0.00000  -0.01668  -0.01874   1.88747
   A51        1.91064  -0.00520   0.00000  -0.02874  -0.02862   1.88203
   A52        1.91063  -0.00904   0.00000   0.00806   0.00832   1.91895
   A53        1.91063   0.02721   0.00000   0.03577   0.03580   1.94643
   A54        1.91064  -0.01644   0.00000   0.02417   0.02425   1.93489
   A55        1.91062   0.02740   0.00000   0.03842   0.03845   1.94907
   A56        1.91063  -0.02393   0.00000  -0.07767  -0.07765   1.83298
   A57        2.09440  -0.04551   0.00000  -0.15003  -0.15073   1.94367
   A58        2.09442  -0.04607   0.00000   0.00348   0.00267   2.09709
   A59        2.09436   0.09158   0.00000   0.14655   0.14551   2.23988
   A60        2.09450  -0.00011   0.00000  -0.01928  -0.01974   2.07476
   A61        2.09451   0.00164   0.00000  -0.00037  -0.00085   2.09366
   A62        2.09417  -0.00153   0.00000   0.01966   0.01814   2.11231
   A63        2.09454   0.02178   0.00000   0.00882   0.00943   2.10397
   A64        2.09439  -0.02115   0.00000  -0.02663  -0.02602   2.06837
   A65        2.09426  -0.00063   0.00000   0.01782   0.01652   2.11078
   A66        2.07805   0.01302   0.00000  -0.00883  -0.00874   2.06931
   A67        2.07791  -0.02104   0.00000  -0.02009  -0.01994   2.05797
   A68        2.12709   0.00802   0.00000   0.03007   0.02744   2.15453
   A69        2.15217  -0.03328   0.00000  -0.04325  -0.04106   2.11112
   A70        1.97863   0.01501   0.00000   0.02413   0.02141   2.00003
   A71        2.15234   0.01828   0.00000   0.01912   0.01964   2.17198
   A72        1.91487   0.00639   0.00000   0.03823   0.03448   1.94935
   A73        2.18424  -0.01093   0.00000  -0.05002  -0.04825   2.13599
   A74        2.18407   0.00453   0.00000   0.01160   0.01264   2.19671
   A75        1.91064  -0.00487   0.00000  -0.03187  -0.03173   1.87891
   A76        1.91062   0.01279   0.00000   0.03285   0.03290   1.94353
   A77        1.91063  -0.00213   0.00000  -0.00516  -0.00588   1.90475
   A78        1.91063  -0.00214   0.00000   0.00316   0.00406   1.91469
   A79        1.91064  -0.00407   0.00000  -0.01296  -0.01366   1.89698
   A80        1.91064   0.00042   0.00000   0.01399   0.01325   1.92388
   A81        2.12232  -0.00094   0.00000  -0.00439  -0.00929   2.11303
   A82        2.12217  -0.00133   0.00000  -0.01614  -0.02124   2.10092
   A83        2.03868   0.00228   0.00000   0.02161   0.01656   2.05525
   A84        2.11753  -0.00180   0.00000  -0.00921  -0.01653   2.10100
   A85        2.11746   0.00792   0.00000   0.03130   0.02291   2.14037
   A86        2.04810  -0.00618   0.00000  -0.02487  -0.03023   2.01788
   A87        1.95562   0.01891   0.00000   0.05317   0.04073   1.99635
   A88        2.16390  -0.01883   0.00000  -0.07207  -0.07795   2.08594
   A89        2.16365  -0.00010   0.00000   0.01749   0.00985   2.17350
   A90        1.91061   0.00633   0.00000   0.01322   0.01294   1.92354
   A91        1.91063   0.00723   0.00000   0.00877   0.00849   1.91912
   A92        1.91066  -0.02112   0.00000  -0.05915  -0.05938   1.85127
   A93        1.91063   0.00191   0.00000   0.02275   0.02242   1.93305
   A94        1.91064   0.00316   0.00000   0.01246   0.01221   1.92285
   A95        1.91063   0.00249   0.00000   0.00194   0.00170   1.91233
    D1        1.09178  -0.00526   0.00000  -0.06395  -0.06115   1.03063
    D2        2.79642  -0.01628   0.00000  -0.06549  -0.06421   2.73221
    D3       -1.02231  -0.00212   0.00000   0.04329   0.04239  -0.97992
    D4       -3.11671   0.00097   0.00000   0.03820   0.03897  -3.07774
    D5        3.14147   0.02338   0.00000  -0.12381  -0.12387   3.01760
    D6       -1.04731  -0.00547   0.00000  -0.10688  -0.10682  -1.15413
    D7       -1.56181  -0.01581   0.00000  -0.11241  -0.11188  -1.67368
    D8        1.56222  -0.01553   0.00000  -0.03946  -0.03999   1.52223
    D9       -0.18459   0.00836   0.00000   0.15975   0.15781  -0.02678
   D10        2.95262   0.00738   0.00000   0.11361   0.11385   3.06647
   D11        0.20882  -0.00647   0.00000  -0.21742  -0.21854  -0.00972
   D12       -2.92630  -0.00243   0.00000   0.01756   0.01303  -2.91327
   D13       -0.52359   0.00308   0.00000   0.22155   0.22555  -0.29804
   D14        2.61802   0.00666   0.00000   0.30000   0.29600   2.91402
   D15       -1.57121  -0.00825   0.00000   0.00282   0.00282  -1.56839
   D16       -1.04695  -0.00502   0.00000  -0.00752  -0.00758  -1.05454
   D17        1.04743   0.00562   0.00000   0.03381   0.03387   1.08130
   D18        1.52509  -0.00216   0.00000   0.09050   0.09113   1.61622
   D19       -0.43407   0.00260   0.00000   0.08206   0.08275  -0.35131
   D20       -0.61576  -0.01205   0.00000  -0.00407  -0.00535  -0.62110
   D21       -2.69932  -0.00408   0.00000   0.10182   0.09678  -2.60254
   D22        0.42937   0.00048   0.00000  -0.07384  -0.07619   0.35319
   D23       -0.57789   0.01617   0.00000   0.18648   0.18761  -0.39028
   D24       -0.02612   0.00185   0.00000  -0.02225  -0.01867  -0.04479
   D25        3.11161   0.00088   0.00000   0.15442   0.14853  -3.02305
   D26       -1.82026  -0.02641   0.00000  -0.16179  -0.16224  -1.98250
   D27       -2.98696   0.00190   0.00000  -0.00381  -0.00303  -2.98999
   D28       -1.19018  -0.00248   0.00000  -0.00261  -0.00382  -1.19400
   D29        1.20178  -0.00443   0.00000  -0.00446  -0.00403   1.19775
   D30       -0.52490  -0.00405   0.00000   0.08170   0.08144  -0.44346
   D31        2.61664  -0.00056   0.00000   0.00605   0.00628   2.62292
   D32        1.56963   0.00230   0.00000   0.08088   0.08091   1.65054
   D33       -0.91719   0.01036   0.00000   0.09993   0.10032  -0.81687
   D34       -3.02067  -0.00102   0.00000   0.00033   0.00000  -3.02067
   D35       -3.01560  -0.01017   0.00000  -0.04263  -0.04233  -3.05793
   D36       -2.47515  -0.01397   0.00000  -0.06894  -0.06852  -2.54367
   D37        0.68452  -0.01396   0.00000  -0.14350  -0.14413   0.54039
   D38       -0.39149  -0.00079   0.00000   0.06913   0.06989  -0.32159
   D39       -3.11762   0.00059   0.00000   0.06316   0.06504  -3.05259
   D40        1.07117  -0.00164   0.00000   0.05869   0.06002   1.13118
   D41        1.02310   0.00100   0.00000  -0.03001  -0.03321   0.98989
   D42       -0.00122   0.00101   0.00000  -0.01186  -0.01192  -0.01315
   D43        3.14043   0.00338   0.00000  -0.02494  -0.02487   3.11556
   D44        3.08688  -0.00189   0.00000  -0.09148  -0.09080   2.99608
   D45       -0.07278  -0.00155   0.00000  -0.01683  -0.01554  -0.08832
   D46        2.91481   0.00282   0.00000  -0.02257  -0.02122   2.89359
   D47       -0.23332   0.00452   0.00000   0.16207   0.16361  -0.06971
   D48       -2.52771  -0.00422   0.00000  -0.16442  -0.16283  -2.69054
   D49        0.62828   0.00063   0.00000   0.05264   0.05004   0.67832
   D50       -0.43669   0.00449   0.00000  -0.07510  -0.07212  -0.50881
   D51       -3.10260  -0.00163   0.00000  -0.09228  -0.09206   3.08852
   D52        0.02910  -0.00079   0.00000  -0.09260  -0.09260  -0.06350
   D53       -0.17106   0.00493   0.00000   0.20994   0.21284   0.04178
   D54        2.96406   0.00081   0.00000  -0.02540  -0.03242   2.93164
   D55       -2.62155  -0.00403   0.00000  -0.16572  -0.16378  -2.78533
   D56        0.52727   0.00042   0.00000   0.09682   0.09274   0.62001
   D57       -0.52716   0.00026   0.00000  -0.09794  -0.09580  -0.62296
   D58        0.68543  -0.01604   0.00000  -0.12721  -0.12675   0.55868
   D59       -1.48385  -0.01477   0.00000  -0.12986  -0.12782  -1.61167
   D60        2.60455  -0.00989   0.00000  -0.09733  -0.09619   2.50835
   D61        0.59745   0.00700   0.00000  -0.09272  -0.09384   0.50361
   D62       -2.53125   0.00268   0.00000   0.08331   0.08421  -2.44704
   D63        2.70181   0.00774   0.00000  -0.09124  -0.09282   2.60899
   D64        0.08576   0.00001   0.00000   0.03487   0.03455   0.12031
   D65       -3.06513   0.01407   0.00000   0.09338   0.09491  -2.97022
   D66       -3.05197   0.00147   0.00000  -0.14146  -0.14746   3.08375
   D67        0.00182   0.00055   0.00000  -0.06674  -0.06864  -0.06682
   D68       -3.13975   0.00414   0.00000   0.01171   0.01503  -3.12472
   D69        3.13982  -0.00061   0.00000   0.09751   0.09610  -3.04727
   D70        0.50525   0.01492   0.00000  -0.00270  -0.00575   0.49950
   D71        2.59967   0.00594   0.00000  -0.03145  -0.03307   2.56660
   D72       -2.62705  -0.00029   0.00000  -0.06220  -0.06088  -2.68793
   D73       -1.56633  -0.01308   0.00000   0.09719   0.09740  -1.46893
   D74        2.62245   0.01124   0.00000   0.09012   0.09034   2.71279
   D75        1.56630   0.00094   0.00000   0.15397   0.15355   1.71985
   D76       -0.00069  -0.00089   0.00000  -0.02048  -0.02068  -0.02137
   D77        3.14084  -0.00327   0.00000  -0.00741  -0.00742   3.13343
   D78        3.14095  -0.00439   0.00000   0.05517   0.05529  -3.08694
   D79       -0.00502  -0.00381   0.00000  -0.02929  -0.02943  -0.03445
   D80       -3.13575  -0.00467   0.00000  -0.02892  -0.02879   3.11865
   D81        3.13664  -0.00144   0.00000  -0.04237  -0.04243   3.09421
   D82        0.12608  -0.00407   0.00000  -0.06961  -0.06907   0.05701
   D83       -3.01114  -0.00304   0.00000  -0.02329  -0.02307  -3.03421
   D84       -3.02541  -0.00356   0.00000  -0.07034  -0.07002  -3.09543
   D85       -0.04636   0.00473   0.00000   0.22863   0.22947   0.18312
   D86        3.08085  -0.00020   0.00000   0.01122   0.01094   3.09179
   D87        3.10177   0.00303   0.00000   0.04397   0.04594  -3.13547
         Item               Value     Threshold  Converged?
 Maximum Force            0.125857     0.000450     NO 
 RMS     Force            0.026212     0.000300     NO 
 Maximum Displacement     0.504336     0.001800     NO 
 RMS     Displacement     0.103117     0.001200     NO 
 Predicted change in Energy=-1.797832D-01
 GradGradGradGradGradGradGradGradGradGradGradGradGradGradGradGradGradGrad

 Stoichiometry    C18H18N8O7S3
 Framework group  C1[X(C18H18N8O7S3)]
 Deg. of freedom   156
 Full point group                 C1      NOp   1
 Largest Abelian subgroup         C1      NOp   1
 Largest concise Abelian subgroup C1      NOp   1
                         Standard orientation:                         
 ---------------------------------------------------------------------
 Center     Atomic     Atomic              Coordinates (Angstroms)
 Number     Number      Type              X           Y           Z
 ---------------------------------------------------------------------
    1         16             0        0.774048    0.271845    2.015898
    2         16             0       -3.446669    0.484660    0.002304
    3         16             0        4.078950    3.556031    0.556804
    4          8             0        1.340261   -1.978888   -1.140922
    5          8             0       -1.183625   -3.855656   -0.548727
    6          8             0       -2.973379   -2.730760   -0.389340
    7          8             0        4.615994   -2.340095   -0.221843
    8          8             0        6.241796   -1.689254   -1.913865
    9          8             0       -7.803083    2.714196    0.811799
   10          8             0       -8.999599    1.350653   -1.335066
   11          7             0        0.289578   -2.226652    1.092630
   12          7             0        3.452033   -0.802918    1.043877
   13          7             0       -5.895545   -0.232070   -1.135426
   14          7             0        6.035318   -0.388603   -1.659867
   15          7             0       -5.779977    1.672151    0.385580
   16          7             0       -6.959945    0.381821   -1.824394
   17          7             0        5.716292    2.368183   -1.092444
   18          7             0        5.995780    4.781854   -0.987916
   19          6             0        1.157349   -1.473308    2.061016
   20          6             0        2.395457   -1.809808    1.178041
   21          6             0        1.352362   -2.075154    0.063492
   22          6             0       -1.057905   -1.837915    0.866139
   23          6             0       -1.676159   -0.804011    1.532857
   24          6             0       -0.924062    0.107125    2.459534
   25          6             0       -3.149860   -0.507328    1.467938
   26          6             0       -1.812871   -2.801543   -0.007437
   27          6             0        4.437677   -1.147266    0.054025
   28          6             0        5.186303   -0.065692   -0.720282
   29          6             0       -5.196587    0.682633   -0.222408
   30          6             0        4.981626    1.368874   -0.415141
   31          6             0        4.105614    1.843643    0.524271
   32          6             0       -4.984572   -0.924972   -2.073917
   33          6             0       -7.146958    1.971683    0.089287
   34          6             0       -7.827771    1.163795   -1.002744
   35          6             0        5.314875    3.575039   -0.697864
   36          6             0        7.314813   -2.268314   -1.123190
   37          1             0        1.178771   -1.820628    3.109199
   38          1             0        2.884885   -2.779465    1.459077
   39          1             0       -1.362029    1.124219    2.417466
   40          1             0       -0.993645   -0.256046    3.505693
   41          1             0        3.915024   -0.711450    1.934531
   42          1             0       -3.479887    0.040141    2.365665
   43          1             0       -3.754394   -1.436182    1.459505
   44          1             0       -1.892966   -4.427893   -0.878903
   45          1             0        3.521400    1.238942    1.213641
   46          1             0       -7.468835   -0.318724   -2.345064
   47          1             0       -4.226184   -1.462367   -1.470915
   48          1             0       -4.479506   -0.203413   -2.756298
   49          1             0       -5.565131   -1.669838   -2.662856
   50          1             0        8.273537   -1.744501   -1.334132
   51          1             0        7.063007   -2.209632   -0.039688
   52          1             0        7.383998   -3.331355   -1.431400
   53          1             0        6.418563    4.771754   -1.897659
   54          1             0        5.384500    5.573057   -0.900227
 ---------------------------------------------------------------------
 Rotational constants (GHZ):      0.1581859      0.0382507      0.0341728
 Standard basis: VSTO-3G (5D, 7F)
 There are   162 symmetry adapted basis functions of A   symmetry.
 Integral buffers will be    262144 words long.
 Raffenetti 1 integral format.
 Two-electron integral symmetry is turned on.
   162 basis functions,   486 primitive gaussians,   162 cartesian basis functions
    95 alpha electrons       95 beta electrons
       nuclear repulsion energy      1931.2162693242 Hartrees.



 Warning!  S  atom    3 may be hypervalent but has no d functions.



 NAtoms=   54 NActive=   54 NUniq=   54 SFac= 1.00D+00 NAtFMM=   60 Big=F
 Initial guess read from the read-write file:
 Initial guess orbital symmetries:
       Occupied  (A) (A) (A) (A) (A) (A) (A) (A) (A) (A) (A) (A)
                 (A) (A) (A) (A) (A) (A) (A) (A) (A) (A) (A) (A)
                 (A) (A) (A) (A) (A) (A) (A) (A) (A) (A) (A) (A)
                 (A) (A) (A) (A) (A) (A) (A) (A) (A) (A) (A) (A)
                 (A) (A) (A) (A) (A) (A) (A) (A) (A) (A) (A) (A)
                 (A) (A) (A) (A) (A) (A) (A) (A) (A) (A) (A) (A)
                 (A) (A) (A) (A) (A) (A) (A) (A) (A) (A) (A) (A)
                 (A) (A) (A) (A) (A) (A) (A) (A) (A) (A) (A)
       Virtual   (A) (A) (A) (A) (A) (A) (A) (A) (A) (A) (A) (A)
                 (A) (A) (A) (A) (A) (A) (A) (A) (A) (A) (A) (A)
                 (A) (A) (A) (A) (A) (A) (A) (A) (A) (A) (A) (A)
                 (A) (A) (A) (A) (A) (A) (A) (A) (A) (A) (A) (A)
                 (A) (A) (A) (A) (A) (A) (A) (A) (A) (A) (A) (A)
                 (A) (A) (A) (A) (A) (A) (A)
 RHF-AM1 calculation of energy and first derivatives.
 MO and density RWFs will be updated without deorthogonalization.
 Closed-shell calculation:      95 occupied levels.
 NNHCO=    0.
 References:
  H: (AM1): M.J.S. DEWAR ET AL, J. AM. CHEM. SOC. 107 3902-3909 (1985)
  C: (AM1): M.J.S. DEWAR ET AL, J. AM. CHEM. SOC. 107 3902-3909 (1985)
  N: (AM1): M.J.S. DEWAR ET AL, J. AM. CHEM. SOC. 107 3902-3909 (1985)
  O: (AM1): M.J.S. DEWAR ET AL, J. AM. CHEM. SOC. 107 3902-3909 (1985)
  S: (AM1): M.J.S.DEWAR and Y-C YUAN, Inorg. Chem. 1990?
 Ext34=T Pulay=F Camp-King=F BShift= 0.00D+00
 It=  1 PL= 0.102D+01 DiagD=T ESCF=     42.023540 Diff= 0.377D+02 RMSDP= 0.120D+00.
 It=  2 PL= 0.615D-01 DiagD=T ESCF=      5.002837 Diff=-0.370D+02 RMSDP= 0.357D-02.
 It=  3 PL= 0.207D-01 DiagD=F ESCF=      2.310456 Diff=-0.269D+01 RMSDP= 0.206D-02.
 It=  4 PL= 0.610D-02 DiagD=F ESCF=      1.727107 Diff=-0.583D+00 RMSDP= 0.393D-03.
 It=  5 PL= 0.330D-02 DiagD=F ESCF=      1.884780 Diff= 0.158D+00 RMSDP= 0.219D-03.
 It=  6 PL= 0.207D-02 DiagD=F ESCF=      1.877885 Diff=-0.690D-02 RMSDP= 0.322D-03.
 It=  7 PL= 0.406D-03 DiagD=F ESCF=      1.868728 Diff=-0.916D-02 RMSDP= 0.197D-04.
 It=  8 PL= 0.291D-03 DiagD=F ESCF=      1.874045 Diff= 0.532D-02 RMSDP= 0.125D-04.
 It=  9 PL= 0.201D-03 DiagD=F ESCF=      1.874024 Diff=-0.207D-04 RMSDP= 0.223D-04.
 It= 10 PL= 0.306D-04 DiagD=F ESCF=      1.873984 Diff=-0.400D-04 RMSDP= 0.159D-05.
 It= 11 PL= 0.269D-04 DiagD=F ESCF=      1.874008 Diff= 0.242D-04 RMSDP= 0.106D-05.
 It= 12 PL= 0.183D-04 DiagD=F ESCF=      1.874008 Diff=-0.148D-06 RMSDP= 0.187D-05.
 It= 13 PL= 0.490D-05 DiagD=F ESCF=      1.874008 Diff=-0.283D-06 RMSDP= 0.171D-06.
 It= 14 PL= 0.371D-05 DiagD=F ESCF=      1.874008 Diff= 0.164D-06 RMSDP= 0.123D-06.
 It= 15 PL= 0.281D-05 DiagD=F ESCF=      1.874008 Diff=-0.226D-08 RMSDP= 0.253D-06.
 It= 16 PL= 0.519D-06 DiagD=F ESCF=      1.874008 Diff=-0.474D-08 RMSDP= 0.235D-07.
 Energy=    0.068869877710 NIter=  17.
 Dipole moment=       1.735432      -1.161898       2.002666
 ***** Axes restored to original set *****
 -------------------------------------------------------------------
 Center     Atomic                   Forces (Hartrees/Bohr)
 Number     Number              X              Y              Z
 -------------------------------------------------------------------
    1         16          -0.002426281   -0.004291621    0.009517376
    2         16           0.000835076    0.003304920    0.000460302
    3         16          -0.002828733    0.017333573   -0.008872561
    4          8           0.000871578    0.005229152   -0.012397517
    5          8          -0.028444850    0.022370566   -0.001424026
    6          8           0.049267039   -0.011070883    0.003521458
    7          8          -0.003446009    0.005840976   -0.003076913
    8          8          -0.003383260   -0.012246067    0.010397972
    9          8           0.004801707   -0.011668805    0.005150286
   10          8           0.007677549    0.004066184   -0.001503626
   11          7          -0.015384167   -0.018853959    0.005158043
   12          7           0.012611845    0.013629710   -0.013017692
   13          7          -0.015230759   -0.011213289   -0.004737077
   14          7          -0.013668861    0.015760177   -0.017232227
   15          7           0.001211694   -0.003966354    0.003810861
   16          7          -0.000898896    0.016766084    0.016904714
   17          7           0.004281599    0.014219365   -0.012312488
   18          7           0.014800634    0.008387231   -0.008786581
   19          6           0.008123322   -0.006653574   -0.009889254
   20          6          -0.016153586   -0.005255603    0.006397353
   21          6           0.009126432   -0.002494126    0.014175124
   22          6          -0.000480908    0.011951188    0.006714975
   23          6           0.007854442    0.001151035   -0.006041311
   24          6          -0.000006011    0.006028674   -0.019318283
   25          6          -0.016330883    0.000116683   -0.008344142
   26          6          -0.016832594   -0.028880646    0.024818261
   27          6           0.005562867   -0.011218085   -0.000312093
   28          6           0.007065154    0.002878411    0.013048798
   29          6           0.003038831    0.003514313   -0.016685700
   30          6          -0.009481883   -0.001099249   -0.009811647
   31          6           0.010217676   -0.019324195    0.018314735
   32          6           0.010215025   -0.006144331    0.008451605
   33          6          -0.006698640    0.023212668    0.014750305
   34          6          -0.005387670   -0.019624251   -0.014544312
   35          6          -0.012225817   -0.017057019    0.019745540
   36          6           0.000218384   -0.003652863    0.000801459
   37          1           0.002857107    0.009000752   -0.003104227
   38          1           0.002337016    0.008562050    0.001104549
   39          1           0.003065857   -0.008398675    0.002129696
   40          1           0.003780008    0.005340316    0.003678423
   41          1           0.002615122   -0.003412030    0.002508337
   42          1           0.001654709   -0.005390667    0.011120132
   43          1           0.000712844    0.006238723   -0.008207662
   44          1          -0.004403286    0.007528240   -0.013715742
   45          1           0.007282166   -0.006629900    0.001353887
   46          1          -0.001762059    0.000667792   -0.002887867
   47          1          -0.005282925    0.004843264    0.003886415
   48          1          -0.003484683   -0.002987168   -0.004289888
   49          1           0.002964698    0.001938427   -0.004297265
   50          1          -0.002218747   -0.002054623   -0.000195976
   51          1           0.000916979    0.000635444    0.002282472
   52          1           0.004517119    0.000593661   -0.006823418
   53          1          -0.003234276    0.000575194    0.001483118
   54          1          -0.000788699    0.001903210    0.000143298
 -------------------------------------------------------------------
 Cartesian Forces:  Max     0.049267039 RMS     0.010460346

 GradGradGradGradGradGradGradGradGradGradGradGradGradGradGradGradGradGrad
 Berny optimization.
 Internal  Forces:  Max     0.045533987 RMS     0.008404474
 Search for a local minimum.
 Step number   2 out of a maximum of 250
 All quantities printed in internal units (Hartrees-Bohrs-Radians)
   2   1  0.1050927      0.3034188      0.3463617    
 Update second derivatives using D2CorL and points  1  2
 Trust test= 6.79D-01 RLast= 1.15D+00 DXMaxT set to 3.00D-01
 RFO step:  Lambda= 6.86862118D-03.
 Quartic linear search produced a step of -0.00461.
 Maximum step size (   0.300) exceeded in Quadratic search.
    -- Step size scaled by   0.367
 Iteration  1 RMS(Cart)=  0.03951403 RMS(Int)=  0.00576621
 Iteration  2 RMS(Cart)=  0.00524604 RMS(Int)=  0.00214500
 Iteration  3 RMS(Cart)=  0.00007404 RMS(Int)=  0.00214414
 Iteration  4 RMS(Cart)=  0.00000058 RMS(Int)=  0.00214414
 Variable       Old X    -DE/DX   Delta X   Delta X   Delta X     New X
                                 (Linear)    (Quad)   (Total)
    R1        3.37755   0.00125  -0.00026   0.00862   0.00823   3.38578
    R2        3.33124   0.00040  -0.00003   0.00490   0.00482   3.33606
    R3        3.39111  -0.00589  -0.00013  -0.00176  -0.00189   3.38922
    R4        3.35494  -0.00927   0.00004  -0.00630  -0.00626   3.34868
    R5        3.23692  -0.01748   0.00039  -0.02550  -0.02516   3.21176
    R6        3.32831  -0.00143   0.00006  -0.00480  -0.00455   3.32376
    R7        2.28339   0.00928   0.00044  -0.00405  -0.00362   2.27977
    R8        2.53540   0.04473   0.00077   0.01819   0.01896   2.55436
    R9        1.83180   0.00851  -0.00008   0.00638   0.00630   1.83810
   R10        2.31261   0.04553   0.00030   0.01153   0.01183   2.32444
[...]
 0000951,0.00002569,0.03458592,0.00940158,-0.04258287,-0.00000382,0.000
 00246,0.00000445,0.00000145,0.00000131,0.00000998,0.00000002,-0.000003
 33,-0.00000205,-0.00000155,-0.00000061,0.00000178,0.00003149,-0.000033
 45,0.00000129,0.00000116,0.00000105,0.00000182,0.00000065,0.00000222,0
 .00000153,0.00000208,0.00000303,-0.00000592,-0.00003373,0.00001686,-0.
 00003376,-0.00000017,-0.00000002,-0.00000185,-0.00000125,0.00000109,-0
 .00000107,0.00000072,-0.00000015,-0.00000022,-0.00000055,0.00000022,-0
 .00000091,0.02209741,0.00124499,-0.00344482,-0.01791616,-0.01020375,0.
 05619751,-0.00001053,-0.00001147,0.00000670,0.00000062,-0.00000018,0.0
 0000072,-0.00002604,0.00007535,-0.00003584,0.00001871,-0.00010833,0.00
 012981,0.00000816,-0.00002109,0.00004049,0.00001059,-0.00000064,0.0000
 1954,-0.00009234,-0.00007928,-0.00006265,0.00317531,0.02208417,-0.0070
 8461,0.00000256,-0.00000028,0.00000315,0.00000184,-0.00000099,0.000000
 58,0.00001116,-0.00003742,0.00004767,-0.00022560,-0.00017614,-0.000002
 84,-0.00000034,-0.00000243,0.00000472,-0.00207532,-0.00198472,-0.00429
 334,0.00000553,-0.00000162,0.00000446,0.00000010,-0.00000078,0.0000021
 4,0.00005257,0.00015442,-0.00000323,-0.00004108,0.00006247,-0.00001772
 ,-0.00000215,0.00000643,-0.00001305,0.00004175,0.00009955,0.00003069,-
 0.00004572,0.00014438,-0.00015991,-0.00000419,-0.00000568,0.00000296,-
 0.00000355,0.00000055,-0.00000016,0.00002372,-0.00000207,-0.00000313,-
 0.00000103,-0.00000563,0.00000080,-0.00001607,0.00001786,-0.00005553,0
 .00040995,0.00022571,0.00015816,0.00035631,0.00132370,0.00022225,-0.00
 000355,-0.00000065,-0.00000664,-0.00021333,-0.00001901,-0.00025666,-0.
 00000671,-0.00008856,0.00002235,0.00000028,0.00000151,-0.00000005,-0.0
 0000539,0.00000147,-0.00000355,-0.00000214,0.00000109,-0.00000163,-0.0
 0000219,-0.00004897,0.00000979,-0.04665727,-0.03694476,0.00262386,-0.0
 0000093,-0.00000183,-0.00000027,0.00000466,0.00000182,0.00000042,-0.00
 000077,0.00000027,-0.00000163,-0.00000501,-0.00000060,0.00000003,0.000
 02090,0.00001977,-0.00004156,0.00000029,0.00000124,-0.00000108,-0.0000
 0070,0.00000203,0.00000009,-0.00000459,0.00000657,-0.00000770,-0.00004
 035,0.00000279,-0.00003279,0.00000009,0.00000125,-0.00000098,-0.000001
 47,0.00000175,-0.00000107,0.00000086,0.00000044,-0.00000007,-0.0000003
 8,0.00000046,-0.00000045,0.00487218,0.01165443,0.00220101,-0.00809660,
 -0.02716788,0.00203400,0.04854875,-0.00001321,-0.00001167,-0.00000106,
 -0.00000832,-0.00000074,-0.00000080,-0.00003035,0.00008468,-0.00003518
 ,-0.00000337,-0.00010812,0.00008254,-0.00000514,-0.00002522,0.00001896
 ,-0.00000911,-0.00002265,0.00000845,-0.00005055,-0.00013447,-0.0001100
 5,0.00970666,-0.02549235,0.02416351,-0.00000828,-0.00000139,-0.0000032
 4,-0.00001006,0.00000004,0.00000485,-0.00003921,-0.00003133,0.00002974
 ,-0.00019838,-0.00012948,-0.00012999,-0.00000323,-0.00000008,-0.000000
 39,0.00076299,-0.00000996,0.00147849,-0.00002317,-0.00000175,-0.000004
 68,-0.00000637,-0.00000391,0.00000008,0.00000161,0.00005354,-0.0000063
 2,-0.00004714,0.00005800,-0.00001944,-0.00001133,0.00000967,-0.0000123
 8,0.00007159,0.00010396,0.00007466,0.00001594,0.00011126,-0.00010061,0
 .00001580,-0.00000238,-0.00000666,-0.00001341,0.00000301,-0.00000053,0
 .00002582,-0.00000038,-0.00000262,-0.00000105,-0.00000432,0.00000053,0
 .00001321,0.00003922,-0.00002159,0.00030687,0.00023497,0.00024547,-0.0
 0012229,-0.00022600,-0.00006798,0.00002297,-0.00000133,0.00000447,0.00
 003931,-0.00004617,0.00003605,-0.00000478,-0.00008343,0.00001557,0.000
 00146,0.00000214,0.00000226,0.00002031,-0.00000071,-0.00000109,0.00001
 273,0.00000263,-0.00000007,0.00003945,-0.00003995,0.00002992,-0.032734
 86,-0.27960138,0.01725614,-0.00000340,0.00000019,0.00000466,-0.0000026
 2,0.00000772,0.00000788,-0.00000026,-0.00000161,-0.00000122,-0.0000042
 5,-0.00000086,0.00000229,0.00002632,-0.00001213,0.00001301,0.00000178,
 0.00000094,0.00000071,0.00000093,0.00000346,0.00000084,-0.00000239,0.0
 0001223,-0.00000701,-0.00002391,-0.00000154,-0.00002179,0.00000048,0.0
 0000178,-0.00000219,0.00000113,0.00000048,-0.00000069,0.00000065,0.,-0
 .00000036,0.00000018,0.00000022,-0.00000058,0.00082534,-0.02146681,-0.
 00629305,-0.00939172,-0.01210303,0.00155159,0.03083832,0.33885926,-0.0
 0000971,-0.00000987,0.00000115,-0.00000480,-0.00000012,-0.00000039,-0.
 00003721,0.00010467,-0.00004383,0.00001621,-0.00007869,0.00006709,-0.0
 0000266,-0.00001025,0.00000759,-0.00000518,-0.00001139,0.00000318,0.00
 005690,-0.00024600,-0.00013946,-0.00366711,0.04410409,-0.01484940,-0.0
 0000430,-0.00000061,-0.00000146,-0.00000507,0.00000022,0.00000284,-0.0
 0000558,-0.00002912,0.00002699,-0.00010863,-0.00016415,-0.00008247,-0.
 00000171,0.,0.00000189,-0.00484663,-0.00297503,-0.00654382,-0.00001162
 ,-0.00000058,-0.00000165,-0.00000318,-0.00000125,0.00000063,0.00009261
 ,0.00020702,-0.00001335,-0.00005128,0.00008080,-0.00002383,-0.00000389
 ,0.00000776,-0.00001083,0.00002856,0.00008058,0.00003163,-0.00002675,0
 .00009517,-0.00009430,0.00000144,-0.00000284,-0.00000013,-0.00000628,0
 .00000198,-0.00000113,0.00002259,-0.00000222,-0.00000219,-0.00000104,-
 0.00000386,0.00000038,0.00000724,0.00001928,-0.00000892,0.00013889,0.0
 0041523,0.00037885,0.00050956,0.00217197,0.00046774,0.00001243,-0.0000
 0145,0.00000022,-0.00021690,-0.00000329,-0.00049548,-0.00001848,-0.000
 12077,0.00002843,0.00000009,0.00000116,0.00000068,0.00001053,-0.000000
 49,-0.00000099,0.00000634,0.00000119,-0.00000061,-0.00001364,-0.000058
 86,0.00001224,0.00141941,0.01048681,-0.04241525,-0.00000185,-0.0000005
 1,0.00000271,-0.00000609,0.00001051,0.00000305,-0.00000007,-0.00000061
 ,-0.00000129,-0.00000399,-0.00000032,0.00000148,0.00002505,0.00001370,
 -0.00000796,0.00000118,0.00000080,0.00000023,0.00000023,0.00000167,0.0
 0000079,-0.00000051,0.00000436,-0.00000180,-0.00004922,0.00000050,-0.0
 0004358,0.00000020,0.00000052,-0.00000128,0.00000003,0.00000033,-0.000
 00067,0.00000049,0.00000006,-0.00000026,-0.00000007,-0.00000004,-0.000
 00039,-0.00012540,-0.02054668,0.00080204,0.00233971,0.00465831,0.00440
 728,0.00452548,-0.03817643,0.05854056,-0.00000922,0.00025343,0.0000675
 0,0.00004147,0.00000621,-0.00000497,0.00047113,0.00233542,-0.00086670,
 -0.00012477,0.00012877,-0.00012770,0.00000346,0.00006063,-0.00006874,0
 .00001850,0.00005126,-0.00003839,-0.00023858,-0.00009653,-0.00004021,0
 .00002942,-0.00048992,0.00023096,0.00003567,0.00000598,0.00000424,0.00
 005126,-0.00000240,-0.00002915,-0.00038797,0.00034499,-0.00008967,-0.0
 0065148,-0.00033907,-0.00019047,0.00001052,0.00001225,-0.00003478,-0.0
 0004172,0.00028681,-0.00016003,0.00007908,0.00001436,-0.00000407,0.000
 03617,0.00001525,-0.00000249,-0.00163988,0.00228073,-0.00115476,-0.237
 72457,-0.13328147,-0.08431788,0.00007978,-0.00042566,-0.00009785,0.000
 24710,0.00031634,0.00029860,0.00041676,-0.00025893,0.00023507,0.000172
 37,-0.00001609,-0.00010902,-0.00004134,0.00002175,0.00001376,-0.000256
 37,0.00005281,-0.00002409,0.00003368,0.00003887,-0.00003814,-0.0000375
 0,-0.00010440,0.00012240,0.00079923,0.00022901,0.00008115,0.00014806,0
 .00025482,0.00020465,-0.00008746,0.00001340,0.00003391,0.00010327,0.00
 027607,0.00056704,-0.00003974,-0.00170329,0.00024811,-0.00000416,-0.00
 002035,-0.00000299,-0.00008027,-0.00000170,0.00001785,-0.00006798,-0.0
 0001442,0.00000673,-0.03799531,0.00029789,-0.02677352,-0.00007323,-0.0
 0000058,-0.00014574,-0.00003252,0.00008040,-0.00000274,0.00002445,-0.0
 0000807,-0.00001846,-0.00002961,-0.00008551,0.00002686,0.00001744,-0.0
 0002659,-0.00000436,0.00011229,-0.00000514,-0.00002665,-0.00000963,-0.
 00001731,0.00001377,0.00000063,-0.00001124,-0.00000375,-0.00000135,-0.
 00002365,0.00001137,-0.00002751,0.00011130,-0.00032943,-0.00000352,-0.
 00000561,0.00001454,0.00000328,-0.00000364,0.00000724,-0.00000763,-0.0
 0000373,0.00000577,0.00000120,0.00000223,0.00000477,0.00001328,0.00000
 002,-0.00000654,-0.00000884,0.00000547,0.00000936,0.00002139,0.0000206
 1,0.00002536,0.29619070,0.00015194,0.00008231,0.00005634,0.00002650,-0
 .00000676,0.00000294,0.00092412,-0.00219197,0.00139668,0.00001009,0.00
 010793,-0.00009547,0.00002658,0.00002613,-0.00003613,0.00003221,0.0000
 4009,-0.00001745,-0.00006603,0.00002172,-0.00005812,-0.00000827,0.0000
 5711,-0.00003969,0.00001850,-0.00000684,0.00000093,0.00001291,-0.00000
 731,-0.00001136,0.00011366,0.00010862,-0.00010034,-0.00008228,0.000121
 93,-0.00020736,0.00000195,-0.00001466,-0.00002715,-0.00001458,-0.00006
 656,-0.00000396,0.00005214,-0.00001814,0.00000011,0.00000161,-0.000020
 83,-0.00001350,0.00205365,-0.00108030,0.00084063,-0.16204463,-0.127610
 17,-0.04151949,0.00001642,-0.00022150,0.00001246,0.00000196,-0.0000766
 6,0.00010503,0.00001722,-0.00010568,0.00009974,-0.00010280,0.00004225,
 0.00000665,0.00009386,-0.00005256,-0.00000514,-0.00021931,0.00004424,-
 0.00006868,-0.00001164,0.00005424,0.00004088,-0.00003580,-0.00006275,0
 .00003921,0.00017542,-0.00002173,0.00015796,-0.00002252,0.00001572,-0.
 00003245,-0.00007217,0.00002541,0.00001206,0.00010378,-0.00015552,-0.0
 0000435,0.00047306,0.00038650,0.00067009,0.00001822,0.00000748,0.00000
 015,-0.00004603,0.00001826,0.00000987,-0.00000704,0.00000581,0.0000081
 5,0.02826372,0.01032288,0.01187250,0.00001949,-0.00000858,0.00003594,-
 0.00002647,0.00001342,-0.00000004,0.00000527,-0.00001281,-0.00000019,0
 .00000124,0.00004422,0.00003310,0.00001937,0.00000192,-0.00001200,-0.0
 0000622,-0.00007399,0.00012483,-0.00001154,-0.00000177,-0.00000958,0.0
 0000189,-0.00000712,-0.00001031,-0.00001272,-0.00000699,0.00001110,-0.
 00016594,-0.00008223,0.00032750,0.00000235,0.00000810,0.00000394,0.000
 00130,-0.00000069,0.00000042,0.00000102,0.00000544,-0.00000098,0.00000
 081,-0.00000016,0.00000181,-0.00000353,0.00000286,0.00000002,0.0000014
 4,0.00000085,-0.00000287,-0.00000256,-0.00000230,-0.00000315,0.1479765
 6,0.13363580,0.00003117,-0.00004579,-0.00004641,-0.00002413,-0.0000031
 4,-0.00000558,-0.00152533,0.00100998,-0.00053926,0.00003346,-0.0000229
 2,0.00001708,-0.00000319,-0.00001898,-0.00000507,-0.00001661,-0.000025
 56,-0.00000540,0.00013092,-0.00002750,-0.00010057,-0.00000163,0.000127
 56,-0.00005557,-0.00002824,-0.00000720,-0.00002278,-0.00003346,0.00000
 090,0.00001037,0.00013332,-0.00011873,-0.00002185,0.00024987,0.0000529
 7,-0.00001137,-0.00001171,-0.00000846,-0.00001839,0.00002031,-0.000097
 56,0.00003191,-0.00007444,-0.00001101,-0.00002952,-0.00002344,-0.00002
 215,-0.00001211,-0.00129293,0.00239100,-0.00212923,-0.11886596,-0.0389
 7062,-0.08659598,-0.00007843,0.00015476,0.00002261,-0.00002290,-0.0000
 9185,-0.00005878,-0.00010418,0.00006843,-0.00004904,-0.00007077,0.0000
 3152,0.00003314,0.00000528,-0.00001613,-0.00003408,0.00012100,-0.00003
 566,-0.00002493,-0.00002388,0.00000889,0.00004509,0.00003354,0.0000413
 1,0.00000454,-0.00037945,0.00001062,0.00009928,0.00006044,-0.00006677,
 -0.00004263,0.00006297,0.00000294,0.00003122,0.00033238,-0.00013223,0.
 00027267,-0.00080532,-0.00008337,0.00009397,0.00001447,0.00001341,0.00
 000792,0.00006761,0.00000406,0.00001304,0.00004784,0.00000834,0.000007
 98,-0.01608440,-0.01216438,-0.00946765,0.00000931,-0.00000155,0.000040
 31,0.00000814,-0.00005875,0.00002643,-0.00001951,-0.00000304,0.0000175
 5,0.00000768,0.00003654,0.00002223,-0.00002338,-0.00000548,0.00002125,
 -0.00007201,0.00009891,0.00004918,0.00000484,0.00000096,-0.00000047,0.
 00000160,0.00000326,-0.00000176,-0.00000272,0.00000929,-0.00000031,-0.
 00015922,0.00018444,0.00028378,0.00000263,0.00000703,-0.00000443,0.000
 00512,0.00000041,-0.00000309,0.00000477,0.00000299,-0.00000319,0.00000
 108,-0.00000108,-0.00000103,-0.00000384,0.00000109,0.00000217,0.000001
 07,-0.00000106,-0.00000313,-0.00000497,-0.00000363,-0.00000485,0.11319
 942,0.03357903,0.08738397,-0.00002475,-0.00000690,-0.00001088,-0.00000
 371,0.00000241,-0.00000139,0.00002119,0.00082309,-0.00073038,-0.000008
 39,-0.00000951,0.00000951,-0.00000439,0.00000008,0.00000220,-0.0000043
 5,-0.00000219,0.00000070,-0.00002824,0.00000816,0.00004646,-0.00000325
 ,-0.00000353,-0.00003642,-0.00000071,0.00000240,-0.00000081,0.00000331
 ,0.00000176,-0.00000062,-0.00004612,-0.00000257,0.00001473,-0.00003193
 ,-0.00002680,0.00003604,0.00000064,0.00000494,0.00000135,-0.00000049,0
 .00006831,0.00003671,-0.00000748,0.00000618,-0.00000228,0.00000434,0.0
 0000756,0.00000326,-0.00320979,-0.00028671,-0.00276352,-0.12805652,-0.
 10089496,0.10466000,-0.00000566,0.00002222,-0.00000725,0.00001053,0.00
 002642,-0.00000545,0.00002000,0.00000140,-0.00000379,0.00003450,-0.000
 00983,-0.00000894,-0.00002184,0.00001229,0.00000025,0.00003212,-0.0000
 0278,0.00000781,0.00000456,-0.00000731,-0.00001042,0.00000336,0.000002
 56,0.00000135,0.00005649,-0.00003053,-0.00007956,-0.00027980,0.0000237
 8,-0.00013235,0.00001159,-0.00000597,0.00000277,0.00023591,0.00124038,
 0.00062487,-0.00024311,-0.00009009,0.00006810,-0.00000487,-0.00000392,
 -0.00000008,0.00000470,-0.00000507,-0.00000011,-0.00000701,-0.00000387
 ,-0.00000110,0.01116887,0.01966103,-0.02041546,0.00001519,0.00000510,0
 .00000041,0.00000496,-0.00000291,0.00000030,0.00000217,0.00000074,-0.0
 0000317,0.00000019,-0.00001292,-0.00000269,-0.00000356,-0.00000334,0.0
 0000420,-0.00000101,0.00001182,-0.00002380,0.00000220,-0.00000159,0.00
 000387,-0.00000042,0.00000028,0.00000157,0.00000230,-0.00000088,-0.000
 00109,-0.00003486,0.00001592,-0.00002218,-0.00000113,-0.00000283,0.000
 00071,0.00000032,-0.00000013,0.00000031,-0.00000074,-0.00000195,0.0000
 0070,-0.00000014,0.00000005,0.00000009,-0.00000112,0.00000073,-0.00000
 114,0.00000122,0.00000049,0.00000032,-0.00000185,0.00000011,-0.0000031
 4,-0.01953744,-0.01765825,0.02516777,0.13993630,0.00009333,0.00000254,
 0.00000910,0.00003812,-0.00000646,0.00000834,-0.00266849,-0.00343063,0
 .00003051,0.00007867,0.00007124,-0.00004520,0.00003960,0.00001317,0.00
 000510,0.00005093,0.00004795,0.00000799,0.00003461,0.00014966,0.000064
 76,-0.00003769,0.00045274,-0.00017471,0.00003603,-0.00000405,0.0000209
 1,0.00003022,-0.00001046,-0.00001386,0.00029320,-0.00001149,-0.0000330
 8,0.00028085,0.00035197,-0.00003160,0.00000867,-0.00001706,-0.00000343
 ,-0.00000421,-0.00035291,0.00004247,0.00010282,-0.00001700,0.00002945,
 0.00001110,-0.00001181,-0.00000293,0.00413885,0.00190278,0.00365353,-0
 .08772795,-0.09560335,0.11290409,0.00002289,-0.00005177,0.00004834,-0.
 00016349,-0.00025120,-0.00007796,-0.00019882,-0.00001533,0.00000606,-0
 .00017101,0.00003477,0.00005311,0.00009595,-0.00005149,-0.00000057,-0.
 00010786,0.00000687,-0.00000824,-0.00001623,0.00002650,0.00003820,-0.0
 0006321,-0.00005713,-0.00003518,-0.00022808,-0.00023025,0.00000741,0.0
 0008573,-0.00016423,0.00007588,-0.00011275,0.00002123,-0.00002814,-0.0
 0194677,-0.00265169,-0.00156192,-0.00035082,0.00421069,-0.00182564,0.0
 0001175,0.00000558,-0.00000540,-0.00009048,0.00002011,-0.00000618,-0.0
 0003110,0.00000584,-0.00000054,0.00966633,-0.03044040,0.03392798,0.000
 07786,-0.00001686,0.00015050,-0.00000589,-0.00000316,-0.00001575,0.000
 00157,-0.00000873,-0.00000612,-0.00000002,0.00004200,0.00000846,0.0000
 1531,0.00000935,-0.00001724,-0.00005140,-0.00012537,0.00009847,-0.0000
 1117,0.00000299,-0.00001567,-0.00000296,-0.00000584,-0.00000814,-0.000
 01472,-0.00000429,0.00000757,0.00023427,-0.00027981,0.00027232,0.00000
 161,0.00000685,0.00000308,-0.00000510,0.00000120,-0.00000059,0.0000002
 7,0.00000596,-0.00000072,-0.00000103,0.00000047,0.00000104,-0.00001288
 ,0.00000004,0.00000607,0.00000962,-0.00000542,-0.00000982,-0.00001662,
 -0.00002093,-0.00002099,-0.01854950,-0.01328330,0.01419167,0.09712998,
 0.13973689,0.00002267,-0.00003286,-0.00003052,-0.00000637,-0.00000303,
 -0.00000092,-0.00259259,-0.00153382,-0.00099764,0.00002050,-0.00000398
 ,0.00000195,0.00000138,-0.00000751,-0.00000240,-0.00000400,-0.00000910
 ,-0.00000244,0.00005010,-0.00001673,-0.00008300,0.00002266,-0.00001487
 ,0.00001590,-0.00001084,-0.00000404,-0.00000918,-0.00001511,-0.0000012
 4,0.00000360,0.00008519,-0.00005490,-0.00000968,0.00008977,0.00006034,
 -0.00004660,-0.00000464,-0.00000623,-0.00000927,-0.00004624,-0.0000065
 6,-0.00006111,-0.00002331,-0.00000920,-0.00001081,-0.00001222,-0.00001
 484,-0.00000691,0.00279784,-0.00044703,0.00071606,0.10305633,0.1589892
 3,-0.21824370,-0.00002511,0.00005924,0.00002782,-0.00004002,-0.0000644
 9,-0.00002377,-0.00006218,0.00002672,-0.00002306,-0.00005010,0.0000157
 9,0.00002002,0.00001593,-0.00001411,-0.00001066,0.00003246,-0.00001154
 ,-0.00000042,-0.00001202,0.00000483,0.00002184,0.00001086,0.00001544,-
 0.00000119,-0.00010431,0.00001516,0.00012991,0.00004997,-0.00001288,0.
 00016589,0.00001447,0.00000763,0.00001256,-0.00229636,-0.00101110,-0.0
 0012663,-0.00016055,0.00261521,-0.00080726,0.00000959,0.00000717,0.000
 00331,0.00002308,0.00000539,0.00000661,0.00002298,0.00000631,0.0000039
 4,0.00633083,0.01048410,-0.02048033,-0.00000250,-0.00000351,-0.0000036
 8,-0.00000080,-0.00001682,0.00001120,-0.00000686,0.,0.00001275,0.00000
 354,0.00002354,0.00000407,-0.00000225,0.00000343,0.00000588,-0.0000228
 8,-0.00001400,0.00003459,0.00000103,0.00000190,-0.00000263,0.00000054,
 0.00000156,-0.00000101,-0.00000227,0.00000402,0.00000085,0.00000208,-0
 .00014798,0.00016226,0.00000184,0.00000510,-0.00000175,0.00000087,0.00
 000041,-0.00000126,0.00000193,0.00000277,-0.00000162,0.00000058,-0.000
 00034,0.00000007,-0.00000023,-0.00000023,0.00000026,-0.00000033,-0.000
 00139,0.00000121,0.00000020,-0.00000003,0.00000220,-0.00073767,-0.0071
 7177,0.01076462,-0.10642708,-0.16172249,0.22887228||0.00000487,-0.0000
 1110,0.00000018,0.00000886,-0.00000735,-0.00001697,-0.00000996,-0.0000
 1246,-0.00000002,0.00000245,0.00001748,-0.00001260,-0.00000143,-0.0000
 0395,0.00000306,0.00000555,-0.00000275,0.00001486,0.00003364,-0.000029
 24,-0.00003183,0.00000447,0.00001158,-0.00000782,0.00000125,0.00000201
 ,0.00000420,0.00000564,-0.00000147,-0.00000161,0.00001729,-0.00000958,
 -0.00000267,-0.00000858,-0.00001868,-0.00000103,-0.00000121,0.00000661
 ,0.00000456,-0.00000432,0.00000868,-0.00000811,-0.00000409,-0.00000162
 ,-0.00000779,0.00000738,-0.00000272,-0.00000233,0.00000994,-0.00001525
 ,0.00001277,0.00000396,-0.00001584,0.00000194,-0.00001671,0.00003021,0
 .00002876,0.00002396,-0.00001188,0.00001511,-0.00002371,0.00001623,-0.
 00000631,0.00002403,0.00000932,0.00000544,0.00000782,0.00000196,-0.000
 00089,0.00000539,0.00000530,-0.00000511,-0.00000853,0.00000382,0.00002
 274,-0.00001127,-0.00002042,-0.00001443,-0.00004529,0.00001836,0.00001
 573,-0.00001889,0.00003297,-0.00002192,0.00000182,0.00000137,0.0000103
 7,0.00000328,-0.00000515,0.00001110,-0.00000602,0.00000650,-0.00000803
 ,-0.00000652,-0.00000206,-0.00000351,-0.00000688,-0.00000313,-0.000004
 86,-0.00000632,0.00000322,0.00000227,0.00000293,0.00002565,-0.00000621
 ,0.00000011,-0.00001166,0.00001332,0.00000207,-0.00001028,-0.00000119,
 0.00000261,0.00000025,-0.00000506,0.00000244,0.00000251,-0.00000208,-0
 .00000168,0.00000059,-0.00000358,-0.00000685,-0.00000093,-0.00000172,-
 0.00000669,0.00000625,-0.00000474,-0.00000945,-0.00000305,-0.00000556,
 0.00000314,0.00000228,-0.00000081,0.00000510,-0.00000805,0.00000101,0.
 00000087,-0.00000035,0.00000083,0.00000566,-0.00000253,0.00000430,-0.0
 0000083,0.00000333,0.00000040,-0.00000425,0.00000034,-0.00000174,0.000
 00204,0.00000119,0.00000754,0.00000249,-0.00000064,0.00000042,0.000003
 33,-0.00000839,0.00000512,0.00000655,0.00000059,0.00000044,-0.00000147
 ,0.00000193,0.00000406|||@


    THE DOUGHNUT CREED
 AS YOU RAMBLE ON THROUGH LIFE, BROTHER
 WHATEVER BE YOUR GOAL
 KEEP YOUR EYE UPON THE DOUGHNUT
 AND NOT UPON THE HOLE.
 Job cpu time:  0 days  0 hours  6 minutes 27.0 seconds.
 File lengths (MBytes):  RWF=     11 Int=      0 D2E=      0 Chk=      7 Scr=      1
 Normal termination of Gaussian 03 at Thu Dec 09 12:41:13 2021.
