 Entering Link 1 = C:\G03W\l1.exe PID=       912.
  
 Copyright (c) 1988,1990,1992,1993,1995,1998,2003,2004, Gaussian, Inc.
                  All Rights Reserved.
  
 This is the Gaussian(R) 03 program.  It is based on the
 the Gaussian(R) 98 system (copyright 1998, Gaussian, Inc.),
 the Gaussian(R) 94 system (copyright 1995, Gaussian, Inc.),
 the Gaussian 92(TM) system (copyright 1992, Gaussian, Inc.),
 the Gaussian 90(TM) system (copyright 1990, Gaussian, Inc.),
 the Gaussian 88(TM) system (copyright 1988, Gaussian, Inc.),
 the Gaussian 86(TM) system (copyright 1986, Carnegie Mellon
 University), and the Gaussian 82(TM) system (copyright 1983,
 Carnegie Mellon University). Gaussian is a federally registered
 trademark of Gaussian, Inc.
  
 This software contains proprietary and confidential information,
 including trade secrets, belonging to Gaussian, Inc.
  
 This software is provided under written license and may be
 used, copied, transmitted, or stored only in accord with that
 written license.
  
 The following legend is applicable only to US Government
 contracts under FAR:
  
                    RESTRICTED RIGHTS LEGEND
  
 Use, reproduction and disclosure by the US Government is
 subject to restrictions as set forth in subparagraphs (a)
 and (c) of the Commercial Computer Software - Restricted
 Rights clause in FAR 52.227-19.
  
 Gaussian, Inc.
 340 Quinnipiac St., Bldg. 40, Wallingford CT 06492
  
  
 ---------------------------------------------------------------
 Warning -- This program may not be used in any manner that
 competes with the business of Gaussian, Inc. or will provide
 assistance to any competitor of Gaussian, Inc.  The licensee
 of this program is prohibited from giving any competitor of
 Gaussian, Inc. access to this program.  By using this program,
 the user acknowledges that Gaussian, Inc. is engaged in the
 business of creating and licensing software in the field of
 computational chemistry and represents and warrants to the
 licensee that it is not a competitor of Gaussian, Inc. and that
 it will not use this program in any manner prohibited above.
 ---------------------------------------------------------------
  

 Cite this work as:
 Gaussian 03, Revision C.01,
 M. J. Frisch, G. W. Trucks, H. B. Schlegel, G. E. Scuseria, 
 M. A. Robb, J. R. Cheeseman, J. A. Montgomery, Jr., T. Vreven, 
 K. N. Kudin, J. C. Burant, J. M. Millam, S. S. Iyengar, J. Tomasi, 
 V. Barone, B. Mennucci, M. Cossi, G. Scalmani, N. Rega, 
 G. A. Petersson, H. Nakatsuji, M. Hada, M. Ehara, K. Toyota, 
 R. Fukuda, J. Hasegawa, M. Ishida, T. Nakajima, Y. Honda, O. Kitao, 
 H. Nakai, M. Klene, X. Li, J. E. Knox, H. P. Hratchian, J. B. Cross, 
 C. Adamo, J. Jaramillo, R. Gomperts, R. E. Stratmann, O. Yazyev, 
 A. J. Austin, R. Cammi, C. Pomelli, J. W. Ochterski, P. Y. Ayala, 
 K. Morokuma, G. A. Voth, P. Salvador, J. J. Dannenberg, 
 V. G. Zakrzewski, S. Dapprich, A. D. Daniels, M. C. Strain, 
 O. Farkas, D. K. Malick, A. D. Rabuck, K. Raghavachari, 
 J. B. Foresman, J. V. Ortiz, Q. Cui, A. G. Baboul, S. Clifford, 
 J. Cioslowski, B. B. Stefanov, G. Liu, A. Liashenko, P. Piskorz, 
 I. Komaromi, R. L. Martin, D. J. Fox, T. Keith, M. A. Al-Laham, 
 C. Y. Peng, A. Nanayakkara, M. Challacombe, P. M. W. Gill, 
 B. Johnson, W. Chen, M. W. Wong, C. Gonzalez, and J. A. Pople, 
 Gaussian, Inc., Wallingford CT, 2004.
 
 ******************************************
 Gaussian 03:  IA32W-G03RevC.01  3-Apr-2004
                04-Jan-2022 
 ******************************************
 %mem=512MB
 %chk=C:\Users\moaz\Documents\cefpodoxime\hf_cefpodoxime.chk
 Default route:  MaxDisk=2000MB
 -------------------------------------
 # opt freq hf/6-31g geom=connectivity
 -------------------------------------
 1/18=20,38=1,57=2/1,3;
 2/9=110,17=6,18=5,40=1/2;
 3/5=1,6=6,11=9,16=1,25=1,30=1/1,2,3;
 4//1;
 5/5=2,38=5/2;
 6/7=2,8=2,9=2,10=2,28=1/1;
 7//1,2,3,16;
 1/18=20/3(1);
 99//99;
 2/9=110/2;
 3/5=1,6=6,11=9,16=1,25=1,30=1/1,2,3;
 4/5=5,16=3/1;
 5/5=2,38=5/2;
 7//1,2,3,16;
 1/18=20/3(-5);
 2/9=110/2;
 6/7=2,8=2,9=2,10=2,19=2,28=1/1;
 99/9=1/99;
 ---------------------------------
 opt and freq of cefpodoxime at hf
 ---------------------------------
 Symbolic Z-matrix:
 Charge =  0 Multiplicity = 1
 S                    -1.38408  -0.63747  -1.76746 
 S                     3.20023  -2.5523   -2.43312 
 O                    -0.49837   0.96017   1.55251 
 O                    -6.19736  -0.97589  -0.69435 
 O                    -3.71497   1.75537   2.29089 
 O                    -5.02559  -0.11917   1.84775 
 O                     1.92599   2.81034   0.053 
 O                     4.12734   2.54445   1.10457 
 N                    -2.28854   1.33032  -0.25818 
 N                     1.00084   1.15369  -1.35907 
 N                     4.27446   1.32694   0.51667 
 N                     4.71132  -1.38078  -0.72255 
 N                     5.52377  -3.65304  -1.17427 
 C                    -1.54237   1.09602  -1.52636 
 C                    -0.30143   1.66699  -0.91018 
 C                    -0.92597   1.25451   0.40617 
 C                    -3.38183   0.39059   0.13564 
 C                    -3.78938  -0.69325  -0.6145 
 C                    -3.0709   -1.11786  -1.91174 
 C                    -4.99848  -1.5164   -0.13271 
 C                    -4.09997   0.64688   1.47362 
 C                     2.06212   1.68378  -0.49098 
 C                     3.34053   0.86046  -0.24725 
 C                     3.50713  -0.51819  -0.91296 
 C                    -7.32009  -1.74025  -0.24698 
 C                     2.56875  -1.07444  -1.72075 
 C                     4.59966  -2.52374  -1.35202 
 C                     5.41224   3.14652   1.28194 
 H                    -1.90283   1.49457  -2.45163 
 H                    -0.2236    2.73219  -0.97487 
 H                    -3.51813  -0.62966  -2.7523 
 H                    -3.14167  -2.17763  -2.04126 
 H                     1.16603   1.4428   -2.30201 
 H                    -4.88503  -2.53336  -0.44546 
 H                    -5.05494  -1.47579   0.93502 
 H                    -4.47495   2.06475   2.7892 
 H                    -8.21716  -1.33582  -0.66722 
 H                    -7.37656  -1.69964   0.82076 
 H                    -7.20664  -2.75721  -0.55973 
 H                     1.59101  -0.6759   -1.89419 
 H                     6.43375  -3.30647  -0.94663 
 H                     5.57084  -4.18181  -2.02172 
 H                     5.88507   3.26517   0.32944 
 H                     5.29649   4.10441   1.74448 
 H                     6.01658   2.52046   1.90462 
 

 GradGradGradGradGradGradGradGradGradGradGradGradGradGradGradGradGradGrad
 Berny optimization.
 Initialization pass.
                           ----------------------------
                           !    Initial Parameters    !
                           ! (Angstroms and Degrees)  !
 --------------------------                            --------------------------
 ! Name  Definition              Value          Derivative Info.                !
 --------------------------------------------------------------------------------
 ! R1    R(1,14)                 1.7573         estimate D2E/DX2                !
 ! R2    R(1,19)                 1.7598         estimate D2E/DX2                !
 ! R3    R(2,26)                 1.7579         estimate D2E/DX2                !
 ! R4    R(2,27)                 1.7686         estimate D2E/DX2                !
 ! R5    R(3,16)                 1.2584         estimate D2E/DX2                !
 ! R6    R(4,20)                 1.43           estimate D2E/DX2                !
 ! R7    R(4,25)                 1.43           estimate D2E/DX2                !
 ! R8    R(5,21)                 1.43           estimate D2E/DX2                !
 ! R9    R(5,36)                 0.96           estimate D2E/DX2                !
 ! R10   R(6,21)                 1.2584         estimate D2E/DX2                !
 ! R11   R(6,35)                 1.6353         estimate D2E/DX2                !
 ! R12   R(7,22)                 1.2584         estimate D2E/DX2                !
 ! R13   R(8,11)                 1.36           estimate D2E/DX2                !
 ! R14   R(8,28)                 1.43           estimate D2E/DX2                !
 ! R15   R(9,14)                 1.4899         estimate D2E/DX2                !
 ! R16   R(9,16)                 1.5178         estimate D2E/DX2                !
 ! R17   R(9,17)                 1.4945         estimate D2E/DX2                !
 ! R18   R(10,15)                1.47           estimate D2E/DX2                !
 ! R19   R(10,22)                1.47           estimate D2E/DX2                !
 ! R20   R(10,33)                1.0            estimate D2E/DX2                !
 ! R21   R(10,40)                1.9955         estimate D2E/DX2                !
 ! R22   R(11,23)                1.2936         estimate D2E/DX2                !
 ! R23   R(12,24)                1.4935         estimate D2E/DX2                !
 ! R24   R(12,27)                1.3096         estimate D2E/DX2                !
 ! R25   R(13,27)                1.47           estimate D2E/DX2                !
 ! R26   R(13,41)                1.0            estimate D2E/DX2                !
 ! R27   R(13,42)                1.0            estimate D2E/DX2                !
 ! R28   R(14,15)                1.4985         estimate D2E/DX2                !
 ! R29   R(14,29)                1.07           estimate D2E/DX2                !
 ! R30   R(15,16)                1.5143         estimate D2E/DX2                !
 ! R31   R(15,30)                1.07           estimate D2E/DX2                !
 ! R32   R(17,18)                1.3797         estimate D2E/DX2                !
 ! R33   R(17,21)                1.54           estimate D2E/DX2                !
 ! R34   R(18,19)                1.5425         estimate D2E/DX2                !
 ! R35   R(18,20)                1.54           estimate D2E/DX2                !
 ! R36   R(19,31)                1.07           estimate D2E/DX2                !
 ! R37   R(19,32)                1.07           estimate D2E/DX2                !
 ! R38   R(20,34)                1.07           estimate D2E/DX2                !
 ! R39   R(20,35)                1.07           estimate D2E/DX2                !
 ! R40   R(22,23)                1.54           estimate D2E/DX2                !
 ! R41   R(23,24)                1.54           estimate D2E/DX2                !
 ! R42   R(24,26)                1.3574         estimate D2E/DX2                !
 ! R43   R(25,37)                1.07           estimate D2E/DX2                !
 ! R44   R(25,38)                1.07           estimate D2E/DX2                !
 ! R45   R(25,39)                1.07           estimate D2E/DX2                !
 ! R46   R(26,40)                1.07           estimate D2E/DX2                !
 ! R47   R(28,43)                1.07           estimate D2E/DX2                !
 ! R48   R(28,44)                1.07           estimate D2E/DX2                !
 ! R49   R(28,45)                1.07           estimate D2E/DX2                !
 ! A1    A(14,1,19)            101.1967         estimate D2E/DX2                !
 ! A2    A(26,2,27)             91.315          estimate D2E/DX2                !
 ! A3    A(20,4,25)            109.4712         estimate D2E/DX2                !
 ! A4    A(21,5,36)            109.4712         estimate D2E/DX2                !
 ! A5    A(11,8,28)            109.4712         estimate D2E/DX2                !
 ! A6    A(14,9,16)             85.1308         estimate D2E/DX2                !
 ! A7    A(14,9,17)            119.4573         estimate D2E/DX2                !
 ! A8    A(16,9,17)            120.6629         estimate D2E/DX2                !
 ! A9    A(15,10,22)           109.4713         estimate D2E/DX2                !
 ! A10   A(15,10,33)           109.4712         estimate D2E/DX2                !
 ! A11   A(22,10,33)           109.4712         estimate D2E/DX2                !
 ! A12   A(8,11,23)            120.0            estimate D2E/DX2                !
 ! A13   A(24,12,27)           111.9659         estimate D2E/DX2                !
 ! A14   A(27,13,41)           109.4712         estimate D2E/DX2                !
 ! A15   A(27,13,42)           109.4712         estimate D2E/DX2                !
 ! A16   A(41,13,42)           109.4712         estimate D2E/DX2                !
 ! A17   A(1,14,9)             108.482          estimate D2E/DX2                !
 ! A18   A(1,14,15)            110.957          estimate D2E/DX2                !
 ! A19   A(1,14,29)            106.2085         estimate D2E/DX2                !
 ! A20   A(9,14,15)             90.2757         estimate D2E/DX2                !
 ! A21   A(9,14,29)            120.5804         estimate D2E/DX2                !
 ! A22   A(15,14,29)           119.513          estimate D2E/DX2                !
 ! A23   A(10,15,14)           118.3598         estimate D2E/DX2                !
 ! A24   A(10,15,16)           122.3931         estimate D2E/DX2                !
 ! A25   A(10,15,30)           105.35           estimate D2E/DX2                !
 ! A26   A(14,15,16)            84.9583         estimate D2E/DX2                !
 ! A27   A(14,15,30)           114.4993         estimate D2E/DX2                !
 ! A28   A(16,15,30)           110.7159         estimate D2E/DX2                !
 ! A29   A(3,16,9)             135.6807         estimate D2E/DX2                !
 ! A30   A(3,16,15)            135.6811         estimate D2E/DX2                !
 ! A31   A(9,16,15)             88.6335         estimate D2E/DX2                !
 ! A32   A(9,17,18)            124.5268         estimate D2E/DX2                !
 ! A33   A(9,17,21)            117.7388         estimate D2E/DX2                !
 ! A34   A(18,17,21)           117.734          estimate D2E/DX2                !
 ! A35   A(17,18,19)           122.4055         estimate D2E/DX2                !
 ! A36   A(17,18,20)           118.7982         estimate D2E/DX2                !
 ! A37   A(19,18,20)           118.7942         estimate D2E/DX2                !
 ! A38   A(1,19,18)            107.6003         estimate D2E/DX2                !
 ! A39   A(1,19,31)            109.9067         estimate D2E/DX2                !
 ! A40   A(1,19,32)            110.1015         estimate D2E/DX2                !
 ! A41   A(18,19,31)           109.9005         estimate D2E/DX2                !
 ! A42   A(18,19,32)           110.0987         estimate D2E/DX2                !
 ! A43   A(31,19,32)           109.2175         estimate D2E/DX2                !
 ! A44   A(4,20,18)            109.4712         estimate D2E/DX2                !
 ! A45   A(4,20,34)            109.4712         estimate D2E/DX2                !
 ! A46   A(4,20,35)            109.4712         estimate D2E/DX2                !
 ! A47   A(18,20,34)           109.4712         estimate D2E/DX2                !
 ! A48   A(18,20,35)           109.4712         estimate D2E/DX2                !
 ! A49   A(34,20,35)           109.4712         estimate D2E/DX2                !
 ! A50   A(5,21,6)             120.0            estimate D2E/DX2                !
 ! A51   A(5,21,17)            120.0            estimate D2E/DX2                !
 ! A52   A(6,21,17)            120.0            estimate D2E/DX2                !
 ! A53   A(7,22,10)            120.0            estimate D2E/DX2                !
 ! A54   A(7,22,23)            120.0            estimate D2E/DX2                !
 ! A55   A(10,22,23)           119.9999         estimate D2E/DX2                !
 ! A56   A(11,23,22)           120.0            estimate D2E/DX2                !
 ! A57   A(11,23,24)           120.0            estimate D2E/DX2                !
 ! A58   A(22,23,24)           119.9999         estimate D2E/DX2                !
 ! A59   A(12,24,23)           123.3107         estimate D2E/DX2                !
 ! A60   A(12,24,26)           113.3658         estimate D2E/DX2                !
 ! A61   A(23,24,26)           123.321          estimate D2E/DX2                !
 ! A62   A(4,25,37)            109.4712         estimate D2E/DX2                !
 ! A63   A(4,25,38)            109.4712         estimate D2E/DX2                !
 ! A64   A(4,25,39)            109.4712         estimate D2E/DX2                !
 ! A65   A(37,25,38)           109.4712         estimate D2E/DX2                !
 ! A66   A(37,25,39)           109.4712         estimate D2E/DX2                !
 ! A67   A(38,25,39)           109.4712         estimate D2E/DX2                !
 ! A68   A(2,26,24)            109.7146         estimate D2E/DX2                !
 ! A69   A(2,26,40)            125.1476         estimate D2E/DX2                !
 ! A70   A(24,26,40)           125.1373         estimate D2E/DX2                !
 ! A71   A(2,27,12)            112.0472         estimate D2E/DX2                !
 ! A72   A(2,27,13)            123.9819         estimate D2E/DX2                !
 ! A73   A(12,27,13)           123.9697         estimate D2E/DX2                !
 ! A74   A(8,28,43)            109.4712         estimate D2E/DX2                !
 ! A75   A(8,28,44)            109.4712         estimate D2E/DX2                !
 ! A76   A(8,28,45)            109.4712         estimate D2E/DX2                !
 ! A77   A(43,28,44)           109.4712         estimate D2E/DX2                !
 ! A78   A(43,28,45)           109.4712         estimate D2E/DX2                !
 ! A79   A(44,28,45)           109.4712         estimate D2E/DX2                !
 ! D1    D(19,1,14,9)           62.55           estimate D2E/DX2                !
 ! D2    D(19,1,14,15)         160.219          estimate D2E/DX2                !
 ! D3    D(19,1,14,29)         -68.4287         estimate D2E/DX2                !
 ! D4    D(14,1,19,18)         -58.5695         estimate D2E/DX2                !
 ! D5    D(14,1,19,31)          61.0788         estimate D2E/DX2                !
 ! D6    D(14,1,19,32)        -178.5693         estimate D2E/DX2                !
 ! D7    D(27,2,26,24)          10.5799         estimate D2E/DX2                !
 ! D8    D(27,2,26,40)        -169.1692         estimate D2E/DX2                !
 ! D9    D(26,2,27,12)         -11.9723         estimate D2E/DX2                !
 ! D10   D(26,2,27,13)         167.6558         estimate D2E/DX2                !
 ! D11   D(25,4,20,18)        -180.0            estimate D2E/DX2                !
 ! D12   D(25,4,20,34)          60.0            estimate D2E/DX2                !
 ! D13   D(25,4,20,35)         -60.0            estimate D2E/DX2                !
 ! D14   D(20,4,25,37)         180.0            estimate D2E/DX2                !
 ! D15   D(20,4,25,38)          60.0            estimate D2E/DX2                !
 ! D16   D(20,4,25,39)         -60.0            estimate D2E/DX2                !
 ! D17   D(36,5,21,6)          -30.0            estimate D2E/DX2                !
 ! D18   D(36,5,21,17)         150.0            estimate D2E/DX2                !
 ! D19   D(28,8,11,23)        -150.0001         estimate D2E/DX2                !
 ! D20   D(11,8,28,43)          60.0            estimate D2E/DX2                !
 ! D21   D(11,8,28,44)        -180.0            estimate D2E/DX2                !
 ! D22   D(11,8,28,45)         -60.0            estimate D2E/DX2                !
 ! D23   D(16,9,14,1)           87.3812         estimate D2E/DX2                !
 ! D24   D(16,9,14,15)         -24.8739         estimate D2E/DX2                !
 ! D25   D(16,9,14,29)        -149.9775         estimate D2E/DX2                !
 ! D26   D(17,9,14,1)          -35.2829         estimate D2E/DX2                !
 ! D27   D(17,9,14,15)        -147.538          estimate D2E/DX2                !
 ! D28   D(17,9,14,29)          87.3585         estimate D2E/DX2                !
 ! D29   D(14,9,16,3)         -154.6567         estimate D2E/DX2                !
 ! D30   D(14,9,16,15)          24.6058         estimate D2E/DX2                !
 ! D31   D(17,9,16,3)          -33.1046         estimate D2E/DX2                !
 ! D32   D(17,9,16,15)         146.1579         estimate D2E/DX2                !
 ! D33   D(14,9,17,18)          -1.4875         estimate D2E/DX2                !
 ! D34   D(14,9,17,21)         178.2916         estimate D2E/DX2                !
 ! D35   D(16,9,17,18)        -104.2861         estimate D2E/DX2                !
 ! D36   D(16,9,17,21)          75.4929         estimate D2E/DX2                !
 ! D37   D(22,10,15,14)       -171.1329         estimate D2E/DX2                !
 ! D38   D(22,10,15,16)        -68.177          estimate D2E/DX2                !
 ! D39   D(22,10,15,30)         59.3099         estimate D2E/DX2                !
 ! D40   D(33,10,15,14)         68.8671         estimate D2E/DX2                !
 ! D41   D(33,10,15,16)        171.823          estimate D2E/DX2                !
 ! D42   D(33,10,15,30)        -60.6901         estimate D2E/DX2                !
 ! D43   D(15,10,22,7)         -30.0001         estimate D2E/DX2                !
 ! D44   D(15,10,22,23)        149.9998         estimate D2E/DX2                !
 ! D45   D(33,10,22,7)          89.9999         estimate D2E/DX2                !
 ! D46   D(33,10,22,23)        -90.0002         estimate D2E/DX2                !
 ! D47   D(8,11,23,22)          -0.0001         estimate D2E/DX2                !
 ! D48   D(8,11,23,24)        -180.0            estimate D2E/DX2                !
 ! D49   D(27,12,24,23)        177.7574         estimate D2E/DX2                !
 ! D50   D(27,12,24,26)         -1.6743         estimate D2E/DX2                !
 ! D51   D(24,12,27,2)           9.8103         estimate D2E/DX2                !
 ! D52   D(24,12,27,13)       -169.8178         estimate D2E/DX2                !
 ! D53   D(41,13,27,2)         150.2079         estimate D2E/DX2                !
 ! D54   D(41,13,27,12)        -30.2078         estimate D2E/DX2                !
 ! D55   D(42,13,27,2)          30.2079         estimate D2E/DX2                !
 ! D56   D(42,13,27,12)       -150.2078         estimate D2E/DX2                !
 ! D57   D(1,14,15,10)          39.287          estimate D2E/DX2                !
 ! D58   D(1,14,15,16)         -85.0136         estimate D2E/DX2                !
 ! D59   D(1,14,15,30)         164.4967         estimate D2E/DX2                !
 ! D60   D(9,14,15,10)         149.2437         estimate D2E/DX2                !
 ! D61   D(9,14,15,16)          24.9431         estimate D2E/DX2                !
 ! D62   D(9,14,15,30)         -85.5466         estimate D2E/DX2                !
 ! D63   D(29,14,15,10)        -84.7883         estimate D2E/DX2                !
 ! D64   D(29,14,15,16)        150.9111         estimate D2E/DX2                !
 ! D65   D(29,14,15,30)         40.4214         estimate D2E/DX2                !
 ! D66   D(10,15,16,3)          34.2193         estimate D2E/DX2                !
 ! D67   D(10,15,16,9)        -145.0432         estimate D2E/DX2                !
 ! D68   D(14,15,16,3)         154.8003         estimate D2E/DX2                !
 ! D69   D(14,15,16,9)         -24.4622         estimate D2E/DX2                !
 ! D70   D(30,15,16,3)         -90.8878         estimate D2E/DX2                !
 ! D71   D(30,15,16,9)          89.8497         estimate D2E/DX2                !
 ! D72   D(9,17,18,19)           4.9059         estimate D2E/DX2                !
 ! D73   D(9,17,18,20)        -175.626          estimate D2E/DX2                !
 ! D74   D(21,17,18,19)       -174.8731         estimate D2E/DX2                !
 ! D75   D(21,17,18,20)          4.595          estimate D2E/DX2                !
 ! D76   D(9,17,21,5)            0.1028         estimate D2E/DX2                !
 ! D77   D(9,17,21,6)         -179.8972         estimate D2E/DX2                !
 ! D78   D(18,17,21,5)         179.8971         estimate D2E/DX2                !
 ! D79   D(18,17,21,6)          -0.1029         estimate D2E/DX2                !
 ! D80   D(17,18,19,1)          28.9485         estimate D2E/DX2                !
 ! D81   D(17,18,19,31)        -90.7037         estimate D2E/DX2                !
 ! D82   D(17,18,19,32)        148.9501         estimate D2E/DX2                !
 ! D83   D(20,18,19,1)        -150.5196         estimate D2E/DX2                !
 ! D84   D(20,18,19,31)         89.8282         estimate D2E/DX2                !
 ! D85   D(20,18,19,32)        -30.5181         estimate D2E/DX2                !
 ! D86   D(17,18,20,4)          90.2562         estimate D2E/DX2                !
 ! D87   D(17,18,20,34)       -149.7438         estimate D2E/DX2                !
 ! D88   D(17,18,20,35)        -29.7438         estimate D2E/DX2                !
 ! D89   D(19,18,20,4)         -90.2562         estimate D2E/DX2                !
 ! D90   D(19,18,20,34)         29.7438         estimate D2E/DX2                !
 ! D91   D(19,18,20,35)        149.7438         estimate D2E/DX2                !
 ! D92   D(7,22,23,11)          -0.0001         estimate D2E/DX2                !
 ! D93   D(7,22,23,24)         179.9997         estimate D2E/DX2                !
 ! D94   D(10,22,23,11)       -180.0            estimate D2E/DX2                !
 ! D95   D(10,22,23,24)         -0.0002         estimate D2E/DX2                !
 ! D96   D(11,23,24,12)          0.3122         estimate D2E/DX2                !
 ! D97   D(11,23,24,26)        179.6879         estimate D2E/DX2                !
 ! D98   D(22,23,24,12)       -179.6877         estimate D2E/DX2                !
 ! D99   D(22,23,24,26)         -0.3119         estimate D2E/DX2                !
 ! D100  D(12,24,26,2)          -7.2227         estimate D2E/DX2                !
 ! D101  D(12,24,26,40)        172.5265         estimate D2E/DX2                !
 ! D102  D(23,24,26,2)         173.3456         estimate D2E/DX2                !
 ! D103  D(23,24,26,40)         -6.9052         estimate D2E/DX2                !
 --------------------------------------------------------------------------------
 Trust Radius=3.00D-01 FncErr=1.00D-07 GrdErr=1.00D-07
 Number of steps in this run= 241 maximum allowed number of steps= 270.
 GradGradGradGradGradGradGradGradGradGradGradGradGradGradGradGradGradGrad

                          Input orientation:                          
 ---------------------------------------------------------------------
 Center     Atomic     Atomic              Coordinates (Angstroms)
 Number     Number      Type              X           Y           Z
 ---------------------------------------------------------------------
    1         16             0       -1.384076   -0.637471   -1.767458
    2         16             0        3.200227   -2.552298   -2.433124
    3          8             0       -0.498370    0.960168    1.552510
    4          8             0       -6.197360   -0.975894   -0.694350
    5          8             0       -3.714966    1.755365    2.290891
    6          8             0       -5.025591   -0.119166    1.847746
    7          8             0        1.925989    2.810336    0.053000
    8          8             0        4.127343    2.544448    1.104566
    9          7             0       -2.288541    1.330320   -0.258180
   10          7             0        1.000842    1.153692   -1.359074
   11          7             0        4.274463    1.326937    0.516670
   12          7             0        4.711319   -1.380783   -0.722551
   13          7             0        5.523767   -3.653042   -1.174265
   14          6             0       -1.542374    1.096022   -1.526360
   15          6             0       -0.301433    1.666988   -0.910178
   16          6             0       -0.925970    1.254507    0.406170
   17          6             0       -3.381831    0.390590    0.135639
   18          6             0       -3.789380   -0.693246   -0.614497
   19          6             0       -3.070902   -1.117856   -1.911735
   20          6             0       -4.998475   -1.516395   -0.132715
   21          6             0       -4.099968    0.646879    1.473621
   22          6             0        2.062122    1.683782   -0.490979
   23          6             0        3.340535    0.860460   -0.247254
   24          6             0        3.507126   -0.518193   -0.912959
   25          6             0       -7.320091   -1.740247   -0.246980
   26          6             0        2.568748   -1.074444   -1.720745
   27          6             0        4.599660   -2.523737   -1.352024
   28          6             0        5.412238    3.146515    1.281939
   29          1             0       -1.902834    1.494572   -2.451631
   30          1             0       -0.223604    2.732191   -0.974868
   31          1             0       -3.518127   -0.629662   -2.752304
   32          1             0       -3.141670   -2.177627   -2.041260
   33          1             0        1.166026    1.442799   -2.302011
   34          1             0       -4.885026   -2.533360   -0.445463
   35          1             0       -5.054943   -1.475789    0.935022
   36          1             0       -4.474949    2.064747    2.789196
   37          1             0       -8.217158   -1.335816   -0.667224
   38          1             0       -7.376557   -1.699641    0.820757
   39          1             0       -7.206641   -2.757212   -0.559727
   40          1             0        1.591006   -0.675901   -1.894192
   41          1             0        6.433750   -3.306470   -0.946631
   42          1             0        5.570838   -4.181813   -2.021723
   43          1             0        5.885071    3.265173    0.329443
   44          1             0        5.296488    4.104410    1.744475
   45          1             0        6.016578    2.520462    1.904618
 ---------------------------------------------------------------------
                    Distance matrix (angstroms):
                    1          2          3          4          5
     1  S    0.000000
     2  S    5.012535   0.000000
     3  O    3.789342   6.473200   0.000000
     4  O    4.943055   9.686228   6.424578   0.000000
     5  O    5.256320   9.417652   3.394706   4.746970   0.000000
     6  O    5.157418   9.586973   4.663459   2.927333   2.329803
     7  O    5.114487   6.046680   3.398407   8.993490   6.159666
     8  O    6.982039   6.273086   4.909971  11.055695   7.970685
     9  N    2.639730   7.066234   2.572998   4.559356   2.951798
    10  N    3.010461   4.441311   3.280611   7.535987   5.993587
    11  N    6.410554   4.990363   4.897695  10.790212   8.195266
    12  N    6.228819   2.565523   6.147911  10.916226   9.482538
    13  N    7.560677   2.862726   8.061212  12.032549  11.252215
    14  C    1.757322   6.051836   3.253896   5.162748   4.441429
    15  C    2.686555   5.690638   2.569671   6.464778   4.680476
    16  C    2.917894   6.291173   1.258400   5.828670   3.403164
    17  C    2.944437   7.653928   3.262865   3.237803   2.572683
    18  C    2.667942   7.457753   4.273224   2.425826   3.800331
    19  C    1.759820   6.454187   4.789269   3.358112   5.131499
    20  C    4.063099   8.578094   5.405950   1.430000   4.269154
    21  C    4.419300   8.876386   3.616059   3.425280   1.430000
    22  C    4.346711   4.797038   3.354934   8.679532   6.412384
    23  C    5.184281   4.055198   4.241024   9.723349   7.551365
    24  C    4.966715   2.557865   4.930323   9.717732   8.221455
    25  C    6.226093  10.775701   7.554222   1.430000   5.626457
    26  C    3.977178   1.757925   4.925552   8.826542   7.974089
    27  C    6.287741   1.768617   6.823769  10.927213  10.035664
    28  C    8.355073   7.153401   6.307821  12.477288   9.287579
    29  H    2.298436   6.512966   4.276827   5.256823   5.083635
    30  H    3.650961   6.463354   3.098903   7.036643   4.879444
    31  H    2.350353   6.995333   5.493443   3.396077   5.582197
    32  H    2.352910   6.365029   5.454171   3.549024   5.879169
    33  H    3.334111   4.485082   4.226166   7.915435   6.709436
    34  H    4.195083   8.326012   5.953099   2.051796   5.220138
    35  H    4.634807   8.980596   5.203608   2.051796   3.751570
    36  H    6.133398  10.368127   4.308441   4.934297   0.960000
    37  H    6.956236  11.617010   8.353350   2.051796   6.210925
    38  H    6.613387  11.098790   7.410770   2.051796   5.244579
    39  H    6.313017  10.576129   7.954958   2.051796   6.378180
    40  H    2.978028   2.530001   4.349939   7.885953   7.181873
    41  H    8.301549   3.637872   8.514940  12.846796  11.794073
    42  H    7.810112   2.905920   8.720688  12.269080  11.835324
    43  H    8.512821   6.977329   6.896177  12.846008   9.914005
    44  H    8.913420   8.133782   6.595718  12.801012   9.328606
    45  H    8.844567   7.244358   6.708431  12.967629   9.769213
                    6          7          8          9         10
     6  O    0.000000
     7  O    7.754196   0.000000
     8  O    9.561556   2.454067   0.000000
     9  N    3.745313   4.477672   6.670438   0.000000
    10  N    6.944188   2.365232   4.216483   3.473212   0.000000
    11  N    9.505471   2.816166   1.360000   6.608587   3.776907
    12  N   10.149163   5.091662   4.368846   7.520888   4.538322
    13  N   11.528650   7.498363   6.749218   9.311566   6.602704
    14  C    4.999407   4.178851   6.416027   1.489947   2.549364
    15  C    5.754489   2.682605   4.944005   2.118264   1.470000
    16  C    4.557632   3.267874   5.261908   1.517797   2.615120
    17  C    2.427572   5.833948   7.871824   1.494479   4.693006
    18  C    2.814325   6.736920   8.724239   2.544464   5.187658
    19  C    4.353376   6.652804   8.621211   3.056125   4.695153
    20  C    2.423883   8.167209  10.064883   3.932336   6.680204
    21  C    1.258400   6.558267   8.451368   2.597594   5.856558
    22  C    7.678276   1.258400   2.748026   4.371201   1.470000
    23  C    8.679905   2.427573   2.298325   5.648662   2.606970
    24  C    8.977080   3.809485   3.719522   6.118455   3.045600
    25  C    3.504356  10.309597  12.297521   5.894489   8.879727
    26  C    8.445156   4.318661   4.848503   5.613844   2.748405
    27  C   10.424296   6.129841   5.651939   7.968536   5.145390
    28  C   10.951396   3.711770   1.430000   8.060553   5.514228
    29  H    5.553413   4.760704   7.078969   2.233154   3.121092
    30  H    6.257512   2.383982   4.825975   2.596700   2.034340
    31  H    4.867598   7.024367   9.132559   3.402069   5.053961
    32  H    4.786521   7.412616   9.221321   4.026524   5.359428
    33  H    7.615533   2.827328   4.646267   4.015462   1.000000
    34  H    3.332701   8.671418  10.459901   4.658844   7.005175
    35  H    1.635345   8.239068  10.025239   4.117154   6.989247
    36  H    2.441108   7.001048   8.778811   3.821814   6.929823
    37  H    4.241629  10.981473  13.060720   6.513379   9.573287
    38  H    3.013246  10.366615  12.265095   6.019358   9.114493
    39  H    4.184758  10.713448  12.622863   6.402074   9.126714
    40  H    7.621771   4.007197   5.078996   4.663940   1.995510
    41  H   12.218181   7.663843   6.615146   9.902128   7.041282
    42  H   11.990088   8.153500   7.556451   9.760304   7.056316
    43  H   11.523954   3.994700   2.051796   8.420029   5.582574
    44  H   11.153231   3.986976   2.051796   8.320990   6.065586
    45  H   11.353429   4.499492   2.051796   8.664244   6.138188
                   11         12         13         14         15
    11  N    0.000000
    12  N    3.009693   0.000000
    13  N    5.405572   2.455052   0.000000
    14  C    6.169512   6.774167   8.521028   0.000000
    15  C    4.805243   5.869565   7.893378   1.498538   0.000000
    16  C    5.202111   6.324381   8.257174   2.034637   1.514252
    17  C    7.722743   8.329065   9.867952   2.577494   3.494535
    18  C    8.389651   8.529142   9.788178   3.013637   4.221837
    19  C    8.113479   7.876944   8.991071   2.717750   4.053200
    20  C    9.720783   9.728638  10.787384   4.551000   5.727179
    21  C    8.456319   9.304480  10.868159   3.967733   4.599129
    22  C    2.457061   4.057515   6.397777   3.796033   2.400501
    23  C    1.293600   2.669855   5.098780   5.053157   3.788652
    24  C    2.457061   1.493451   3.736630   5.336609   4.390916
    25  C   12.017672  12.046169  13.018576   6.562259   7.830111
    26  C    3.698935   2.383452   3.959791   4.652959   4.050976
    27  C    4.292489   1.309599   1.470000   7.131454   6.463600
    28  C    2.278384   5.000569   7.230447   7.775454   6.296063
    29  H    6.855502   7.416495   9.126007   1.070000   2.229414
    30  H    4.942877   6.429128   8.593209   2.172636   1.070000
    31  H    8.674038   8.509281   9.663688   2.895605   4.360637
    32  H    8.592090   8.002712   8.832798   3.679626   4.911961
    33  H    4.197709   4.799626   6.799214   2.838542   2.034920
    34  H    9.986182   9.669284  10.494180   5.051146   6.234437
    35  H    9.750287   9.906384  11.004481   5.001075   5.989797
    36  H    9.069782  10.420727  12.180987   5.306830   5.591226
    37  H   12.827021  12.928674  13.944162   7.155746   8.469626
    38  H   12.041550  12.190169  13.199025   6.882033   8.024195
    39  H   12.233342  11.998285  12.776676   6.918505   8.208426
    40  H    4.126083   3.406751   4.984804   3.618436   3.168397
    41  H    5.317163   2.593309   1.000000   9.128887   8.372533
    42  H    6.202447   3.205058   1.000000   8.871229   8.362271
    43  H    2.527028   4.906046   7.088961   7.957145   6.508739
    44  H    3.204123   6.042846   8.291487   8.155906   6.657698
    45  H    2.527027   4.881130   6.916251   8.422493   6.969129
                   16         17         18         19         20
    16  C    0.000000
    17  C    2.617402   0.000000
    18  C    3.610350   1.379675   0.000000
    19  C    3.949877   2.561997   1.542508   0.000000
    20  C    4.955159   2.514388   1.540000   2.653165   0.000000
    21  C    3.403370   1.540000   2.500527   3.953973   2.840314
    22  C    3.149261   5.630419   6.317088   6.017945   7.760252
    23  C    4.334201   6.749636   7.306474   6.913086   8.671888
    24  C    4.953272   7.027316   7.304706   6.680389   8.599444
    25  C    7.090835   4.494080   3.700972   4.605907   2.335180
    26  C    4.707530   6.403271   6.464897   5.643050   7.744677
    27  C    6.920908   8.626160   8.618042   7.818395   9.727572
    28  C    6.672296   9.286806  10.149385  10.017389  11.494647
    29  H    3.029674   3.178077   3.423545   2.912156   4.901662
    30  H    2.141059   4.085427   4.957645   4.879312   6.446635
    31  H    4.499482   3.065895   2.155885   1.070000   3.136873
    32  H    4.762226   3.375250   2.158372   1.070000   2.743629
    33  H    3.427266   5.266145   5.653888   4.965967   7.173824
    34  H    5.545029   3.338677   2.148263   2.728489   1.070000
    35  H    4.978215   2.630910   2.148263   3.488346   1.070000
    36  H    4.350925   3.322510   4.434147   5.847996   4.651475
    37  H    7.811747   5.196678   4.474472   5.299082   3.267756
    38  H    7.106965   4.560295   3.992571   5.132607   2.568650
    39  H    7.514898   5.002136   3.992571   4.649704   2.568650
    40  H    3.918330   5.476013   5.530504   4.682843   6.872444
    41  H    8.763450  10.544439  10.557066   9.801014  11.600112
    42  H    8.812308  10.281603  10.087818   9.169493  11.062694
    43  H    7.102037   9.704445  10.495480  10.219749  11.896577
    44  H    6.973664   9.575700  10.542071  10.519181  11.878702
    45  H    7.214357   9.797740  10.622178  10.506388  11.907071
                   21         22         23         24         25
    21  C    0.000000
    22  C    6.550280   0.000000
    23  C    7.639902   1.540000   0.000000
    24  C    8.057359   2.667357   1.540000   0.000000
    25  C    4.362112   9.990466  10.973268  10.916298   0.000000
    26  C    7.592015   3.062157   2.551605   1.357382  10.020200
    27  C    9.680940   4.988358   3.776070   2.325644  11.996476
    28  C    9.837021   4.062770   3.443317   4.677298  13.723346
    29  H    4.577508   4.427283   5.723137   5.973810   6.683652
    30  H    5.036846   2.560831   4.090952   4.948452   8.419777
    31  H    4.452700   6.450178   7.452314   7.262906   4.686680
    32  H    4.609833   6.662830   7.380204   6.945018   4.568363
    33  H    6.528368   2.034920   3.047890   3.354952   9.293499
    34  H    3.796461   8.127067   8.900402   8.643360   2.568650
    35  H    2.389097   7.916374   8.794309   8.811415   2.568650
    36  H    1.970203   7.323795   8.470662   9.170117   5.638366
    37  H    5.046341  10.715066  11.772012  11.755328   1.070000
    38  H    4.082698  10.112214  11.070268  11.084049   1.070000
    39  H    5.037237  10.277992  11.154735  10.950926   1.070000
    40  H    6.743819   2.785509   2.851958   2.158520   9.124351
    41  H   11.508510   6.649914   5.236451   4.042370  13.860401
    42  H   11.360378   7.004247   5.792022   4.348607  13.239600
    43  H   10.385837   4.217680   3.548223   4.638107  14.133746
    44  H   10.016051   4.617123   4.279714   5.624254  14.046493
    45  H   10.297600   4.698578   3.814101   4.844534  14.165088
                   26         27         28         29         30
    26  C    0.000000
    27  C    2.522104   0.000000
    28  C    5.909149   6.304745   0.000000
    29  H    5.208559   7.722589   8.377275   0.000000
    30  H    4.779543   7.143592   6.085027   2.555845   0.000000
    31  H    6.189668   8.452619  10.501717   2.685507   5.031424
    32  H    5.824828   7.779655  10.609405   3.897200   5.810217
    33  H    2.939730   5.331578   5.811855   3.072942   2.314069
    34  H    7.701528   9.527918  11.886065   5.398372   7.052316
    35  H    8.082997   9.976980  11.447616   5.498022   6.685552
    36  H    8.933519  10.979637  10.059747   5.865759   5.717306
    37  H   10.840387  12.889955  14.479329   7.146041   8.974421
    38  H   10.283929  12.199586  13.683976   7.132543   8.604077
    39  H    9.986887  11.835159  14.052823   7.056014   8.892058
    40  H    1.070000   3.572177   6.269010   4.150736   3.969013
    41  H    4.529838   2.034920   6.902972   9.737231   8.988136
    42  H    4.331152   2.034920   8.040133   9.394783   9.081571
    43  H    5.833827   6.163691   1.070000   8.457001   6.269067
    44  H    6.802121   7.348892   1.070000   8.732056   6.304699
    45  H    6.160693   6.169061   1.070000   9.096507   6.875764
                   31         32         33         34         35
    31  H    0.000000
    32  H    1.744562   0.000000
    33  H    5.141902   5.633092   0.000000
    34  H    3.288464   2.390064   7.474748   0.000000
    35  H    4.083394   3.607138   7.595854   1.747303   0.000000
    36  H    6.235670   6.565720   7.624160   5.636823   4.038533
    37  H    5.189134   5.325148   9.921562   3.547731   3.547731
    38  H    5.366480   5.133604   9.623011   2.916527   2.335179
    39  H    4.789467   4.365186   9.527707   2.335179   2.916527
    40  H    5.180901   4.967397   2.199049   6.891151   7.267249
    41  H   10.462582   9.703668   7.220909  11.356213  11.784824
    42  H    9.785746   8.940075   7.149629  10.701733  11.356590
    43  H   10.634239  10.803997   5.702191  12.256364  11.938481
    44  H   10.969499  11.180264   6.365449  12.349861  11.787534
    45  H   11.068912  11.023407   6.510372  12.243731  11.810533
                   36         37         38         39         40
    36  H    0.000000
    37  H    6.124933   0.000000
    38  H    5.144385   1.747303   0.000000
    39  H    6.475239   1.747303   1.747303   0.000000
    40  H    8.138862   9.906615   9.425295   9.138448   0.000000
    41  H   12.720302  14.785488  14.015354  13.656927   5.591953
    42  H   12.770368  14.143664  13.486138  12.939509   5.305351
    43  H   10.715476  14.867256  14.169035  14.437890   6.238238
    44  H   10.036566  14.765873  13.969479  14.447126   7.058462
    45  H   10.538609  14.969452  14.084036  14.449234   6.650818
                   41         42         43         44         45
    41  H    0.000000
    42  H    1.632993   0.000000
    43  H    6.716837   7.815646   0.000000
    44  H    7.965962   9.106098   1.747303   0.000000
    45  H    6.500522   7.780445   1.747303   1.747303   0.000000
 Stoichiometry    C15H17N5O6S2
 Framework group  C1[X(C15H17N5O6S2)]
 Deg. of freedom   129
 Full point group                 C1      NOp   1
 Largest Abelian subgroup         C1      NOp   1
 Largest concise Abelian subgroup C1      NOp   1
                         Standard orientation:                         
 ---------------------------------------------------------------------
 Center     Atomic     Atomic              Coordinates (Angstroms)
 Number     Number      Type              X           Y           Z
 ---------------------------------------------------------------------
    1         16             0        1.218606   -1.286119    0.944166
    2         16             0       -3.363396   -3.170643    0.183028
    3          8             0        0.560614    1.801613   -1.151560
    4          8             0        6.106541   -1.135534    0.223601
    5          8             0        3.807856    2.791046   -1.129819
    6          8             0        5.118220    0.924532   -1.606324
    7          8             0       -2.010090    2.680061    0.890248
    8          8             0       -4.117340    3.036960   -0.315806
    9          7             0        2.196987    1.155888    0.726109
   10          7             0       -1.163579    0.514718    1.325024
   11          7             0       -4.284689    1.693524   -0.445318
   12          7             0       -4.760886   -1.256986   -0.800254
   13          7             0       -5.559284   -3.422858   -1.636221
   14          6             0        1.359643    0.323563    1.634972
   15          6             0        0.158822    1.156337    1.303108
   16          6             0        0.891893    1.459972    0.013390
   17          6             0        3.336522    0.524995   -0.006628
   18          6             0        3.706735   -0.798612    0.113825
   19          6             0        2.898629   -1.809973    0.952540
   20          6             0        4.966141   -1.286945   -0.625789
   21          6             0        4.150892    1.412476   -0.966201
   22          6             0       -2.164941    1.436988    0.770414
   23          6             0       -3.403489    0.881929    0.042740
   24          6             0       -3.592986   -0.639315   -0.103914
   25          6             0        7.275988   -1.588986   -0.463183
   26          6             0       -2.708917   -1.550570    0.376214
   27          6             0       -4.675041   -2.563276   -0.836138
   28          6             0       -5.396647    3.673427   -0.259398
   29          1             0        1.639016    0.185840    2.658634
   30          1             0        0.054440    2.040674    1.896364
   31          1             0        3.269224   -1.829316    1.956126
   32          1             0        2.980796   -2.788631    0.527832
   33          1             0       -1.407289    0.285511    2.267399
   34          1             0        4.849596   -2.318273   -0.885941
   35          1             0        5.104422   -0.708207   -1.515081
   36          1             0        4.597717    3.294585   -1.339982
   37          1             0        8.129295   -1.475692    0.172374
   38          1             0        7.414268   -1.010248   -1.352475
   39          1             0        7.159443   -2.620314   -0.723335
   40          1             0       -1.755932   -1.318129    0.803636
   41          1             0       -6.455765   -2.988637   -1.724389
   42          1             0       -5.661127   -4.308975   -1.184087
   43          1             0       -5.944270    3.299619    0.580410
   44          1             0       -5.264983    4.730395   -0.157503
   45          1             0       -5.937934    3.466504   -1.158893
 ---------------------------------------------------------------------
 Rotational constants (GHZ):      0.2487452      0.0777503      0.0644145
 Standard basis: 6-31G (6D, 7F)
 There are   294 symmetry adapted basis functions of A   symmetry.
 Integral buffers will be    262144 words long.
 Raffenetti 1 integral format.
 Two-electron integral symmetry is turned on.
   294 basis functions,   732 primitive gaussians,   294 cartesian basis functions
   111 alpha electrons      111 beta electrons
       nuclear repulsion energy      2970.3664889422 Hartrees.
 NAtoms=   45 NActive=   45 NUniq=   45 SFac= 1.00D+00 NAtFMM=   60 Big=F
 One-electron integrals computed using PRISM.
 NBasis=   294 RedAO= T  NBF=   294
 NBsUse=   294 1.00D-06 NBFU=   294
 Harris functional with IExCor=  205 diagonalized for initial guess.
 ExpMin= 1.17D-01 ExpMax= 2.19D+04 ExpMxC= 3.30D+03 IAcc=1 IRadAn=         1 AccDes= 1.00D-06
 HarFok:  IExCor= 205 AccDes= 1.00D-06 IRadAn=         1 IDoV=1
 ScaDFX=  1.000000  1.000000  1.000000  1.000000
 Initial guess orbital symmetries:
       Occupied  (A) (A) (A) (A) (A) (A) (A) (A) (A) (A) (A) (A)
                 (A) (A) (A) (A) (A) (A) (A) (A) (A) (A) (A) (A)
                 (A) (A) (A) (A) (A) (A) (A) (A) (A) (A) (A) (A)
                 (A) (A) (A) (A) (A) (A) (A) (A) (A) (A) (A) (A)
                 (A) (A) (A) (A) (A) (A) (A) (A) (A) (A) (A) (A)
                 (A) (A) (A) (A) (A) (A) (A) (A) (A) (A) (A) (A)
                 (A) (A) (A) (A) (A) (A) (A) (A) (A) (A) (A) (A)
                 (A) (A) (A) (A) (A) (A) (A) (A) (A) (A) (A) (A)
                 (A) (A) (A) (A) (A) (A) (A) (A) (A) (A) (A) (A)
                 (A) (A) (A)
       Virtual   (A) (A) (A) (A) (A) (A) (A) (A) (A) (A) (A) (A)
                 (A) (A) (A) (A) (A) (A) (A) (A) (A) (A) (A) (A)
                 (A) (A) (A) (A) (A) (A) (A) (A) (A) (A) (A) (A)
                 (A) (A) (A) (A) (A) (A) (A) (A) (A) (A) (A) (A)
                 (A) (A) (A) (A) (A) (A) (A) (A) (A) (A) (A) (A)
                 (A) (A) (A) (A) (A) (A) (A) (A) (A) (A) (A) (A)
                 (A) (A) (A) (A) (A) (A) (A) (A) (A) (A) (A) (A)
                 (A) (A) (A) (A) (A) (A) (A) (A) (A) (A) (A) (A)
                 (A) (A) (A) (A) (A) (A) (A) (A) (A) (A) (A) (A)
                 (A) (A) (A) (A) (A) (A) (A) (A) (A) (A) (A) (A)
                 (A) (A) (A) (A) (A) (A) (A) (A) (A) (A) (A) (A)
                 (A) (A) (A) (A) (A) (A) (A) (A) (A) (A) (A) (A)
                 (A) (A) (A) (A) (A) (A) (A) (A) (A) (A) (A) (A)
                 (A) (A) (A) (A) (A) (A) (A) (A) (A) (A) (A) (A)
                 (A) (A) (A) (A) (A) (A) (A) (A) (A) (A) (A) (A)
                 (A) (A) (A)
 The electronic state of the initial guess is 1-A.
 Requested convergence on RMS density matrix=1.00D-08 within 128 cycles.
 Requested convergence on MAX density matrix=1.00D-06.
 Requested convergence on             energy=1.00D-06.
 No special actions if energy rises.
 Integral accuracy reduced to 1.0D-05 until final iterations.
 Initial convergence to 1.0D-05 achieved.  Increase integral accuracy.
 SCF Done:  E(RHF) =  -2093.35124967     A.U. after   18 cycles
             Convg  =    0.9523D-08             -V/T =  2.0001
             S**2   =   0.0000

 **********************************************************************

            Population analysis using the SCF density.

 **********************************************************************

 Orbital symmetries:
       Occupied  (A) (A) (A) (A) (A) (A) (A) (A) (A) (A) (A) (A)
                 (A) (A) (A) (A) (A) (A) (A) (A) (A) (A) (A) (A)
                 (A) (A) (A) (A) (A) (A) (A) (A) (A) (A) (A) (A)
                 (A) (A) (A) (A) (A) (A) (A) (A) (A) (A) (A) (A)
                 (A) (A) (A) (A) (A) (A) (A) (A) (A) (A) (A) (A)
                 (A) (A) (A) (A) (A) (A) (A) (A) (A) (A) (A) (A)
                 (A) (A) (A) (A) (A) (A) (A) (A) (A) (A) (A) (A)
                 (A) (A) (A) (A) (A) (A) (A) (A) (A) (A) (A) (A)
                 (A) (A) (A) (A) (A) (A) (A) (A) (A) (A) (A) (A)
                 (A) (A) (A)
       Virtual   (A) (A) (A) (A) (A) (A) (A) (A) (A) (A) (A) (A)
                 (A) (A) (A) (A) (A) (A) (A) (A) (A) (A) (A) (A)
                 (A) (A) (A) (A) (A) (A) (A) (A) (A) (A) (A) (A)
                 (A) (A) (A) (A) (A) (A) (A) (A) (A) (A) (A) (A)
                 (A) (A) (A) (A) (A) (A) (A) (A) (A) (A) (A) (A)
                 (A) (A) (A) (A) (A) (A) (A) (A) (A) (A) (A) (A)
                 (A) (A) (A) (A) (A) (A) (A) (A) (A) (A) (A) (A)
                 (A) (A) (A) (A) (A) (A) (A) (A) (A) (A) (A) (A)
                 (A) (A) (A) (A) (A) (A) (A) (A) (A) (A) (A) (A)
                 (A) (A) (A) (A) (A) (A) (A) (A) (A) (A) (A) (A)
                 (A) (A) (A) (A) (A) (A) (A) (A) (A) (A) (A) (A)
                 (A) (A) (A) (A) (A) (A) (A) (A) (A) (A) (A) (A)
                 (A) (A) (A) (A) (A) (A) (A) (A) (A) (A) (A) (A)
                 (A) (A) (A) (A) (A) (A) (A) (A) (A) (A) (A) (A)
                 (A) (A) (A) (A) (A) (A) (A) (A) (A) (A) (A) (A)
                 (A) (A) (A)
 The electronic state is 1-A.
 Alpha  occ. eigenvalues --  -91.98599 -91.95979 -20.62209 -20.61420 -20.59681
 Alpha  occ. eigenvalues --  -20.59506 -20.58340 -20.56380 -15.66387 -15.64645
 Alpha  occ. eigenvalues --  -15.62319 -15.60085 -15.58851 -11.44817 -11.41713
 Alpha  occ. eigenvalues --  -11.41709 -11.37273 -11.34351 -11.33911 -11.33537
 Alpha  occ. eigenvalues --  -11.32692 -11.31670 -11.31651 -11.30134 -11.28164
 Alpha  occ. eigenvalues --  -11.27824 -11.27710 -11.26971  -9.00631  -8.98344
 Alpha  occ. eigenvalues --   -6.68770  -6.68626  -6.68336  -6.66529  -6.66309
 Alpha  occ. eigenvalues --   -6.66033  -1.47300  -1.46032  -1.42369  -1.40891
 Alpha  occ. eigenvalues --   -1.37933  -1.36826  -1.32864  -1.29839  -1.25810
 Alpha  occ. eigenvalues --   -1.21018  -1.18969  -1.15295  -1.11429  -1.07889
 Alpha  occ. eigenvalues --   -1.03200  -1.01468  -0.97343  -0.96571  -0.95059
 Alpha  occ. eigenvalues --   -0.91465  -0.89597  -0.87096  -0.84953  -0.81403
 Alpha  occ. eigenvalues --   -0.79131  -0.78678  -0.76220  -0.75363  -0.72692
 Alpha  occ. eigenvalues --   -0.72212  -0.71305  -0.70325  -0.69598  -0.68755
 Alpha  occ. eigenvalues --   -0.68249  -0.66654  -0.66539  -0.66283  -0.65242
 Alpha  occ. eigenvalues --   -0.64715  -0.64488  -0.63495  -0.62510  -0.62032
 Alpha  occ. eigenvalues --   -0.61560  -0.60567  -0.60198  -0.57832  -0.57457
 Alpha  occ. eigenvalues --   -0.57185  -0.56462  -0.56127  -0.55703  -0.55011
 Alpha  occ. eigenvalues --   -0.54965  -0.52816  -0.51521  -0.50543  -0.50020
 Alpha  occ. eigenvalues --   -0.49813  -0.48883  -0.48217  -0.47749  -0.46155
 Alpha  occ. eigenvalues --   -0.45494  -0.44115  -0.42497  -0.42392  -0.41215
 Alpha  occ. eigenvalues --   -0.41085  -0.40080  -0.37642  -0.37412  -0.36647
 Alpha  occ. eigenvalues --   -0.32595
 Alpha virt. eigenvalues --    0.05734   0.06043   0.11672   0.12196   0.15695
 Alpha virt. eigenvalues --    0.17959   0.18857   0.19113   0.20358   0.21005
 Alpha virt. eigenvalues --    0.21237   0.21792   0.23231   0.24536   0.25015
 Alpha virt. eigenvalues --    0.25704   0.26569   0.26874   0.27838   0.28685
 Alpha virt. eigenvalues --    0.29153   0.29646   0.30041   0.30377   0.31203
 Alpha virt. eigenvalues --    0.31539   0.32167   0.32499   0.32816   0.33442
 Alpha virt. eigenvalues --    0.33682   0.35238   0.35577   0.36999   0.38148
 Alpha virt. eigenvalues --    0.38757   0.39154   0.39897   0.41331   0.41781
 Alpha virt. eigenvalues --    0.42682   0.43820   0.44342   0.46237   0.47100
 Alpha virt. eigenvalues --    0.48877   0.49338   0.49669   0.51490   0.51930
 Alpha virt. eigenvalues --    0.53256   0.54483   0.57203   0.58238   0.60015
 Alpha virt. eigenvalues --    0.60959   0.61119   0.62537   0.63866   0.64770
 Alpha virt. eigenvalues --    0.67560   0.69725   0.72432   0.73127   0.74582
 Alpha virt. eigenvalues --    0.75377   0.76150   0.76370   0.77084   0.77164
 Alpha virt. eigenvalues --    0.77894   0.78671   0.79301   0.79986   0.80189
 Alpha virt. eigenvalues --    0.81145   0.81586   0.82621   0.83370   0.84225
 Alpha virt. eigenvalues --    0.84772   0.86307   0.87146   0.88070   0.88440
 Alpha virt. eigenvalues --    0.88919   0.89953   0.90411   0.92303   0.92918
 Alpha virt. eigenvalues --    0.93412   0.94307   0.95252   0.96350   0.97187
 Alpha virt. eigenvalues --    1.00101   1.00953   1.01828   1.02078   1.04411
 Alpha virt. eigenvalues --    1.04581   1.04964   1.05959   1.07164   1.07577
 Alpha virt. eigenvalues --    1.08150   1.09258   1.10491   1.10888   1.11101
 Alpha virt. eigenvalues --    1.12088   1.12766   1.14094   1.14423   1.15877
 Alpha virt. eigenvalues --    1.16639   1.17051   1.17512   1.17775   1.18852
 Alpha virt. eigenvalues --    1.19284   1.19858   1.20186   1.20612   1.21144
 Alpha virt. eigenvalues --    1.21895   1.22375   1.23209   1.23639   1.24022
 Alpha virt. eigenvalues --    1.24250   1.24942   1.25625   1.26156   1.27122
 Alpha virt. eigenvalues --    1.27323   1.27859   1.29678   1.30275   1.30902
 Alpha virt. eigenvalues --    1.31380   1.31711   1.32834   1.35026   1.36086
 Alpha virt. eigenvalues --    1.36815   1.37663   1.38783   1.40880   1.41789
 Alpha virt. eigenvalues --    1.44216   1.44495   1.48244   1.48691   1.49794
 Alpha virt. eigenvalues --    1.51375   1.54190   1.55229   1.57028   1.57685
 Alpha virt. eigenvalues --    1.58548   1.61517   1.63492   1.66601   1.69111
 Alpha virt. eigenvalues --    1.69739   1.72462   1.74912   1.78989   1.84908
 Alpha virt. eigenvalues --    1.85045   1.89942   1.90520   1.92959   2.04892
 Alpha virt. eigenvalues --    2.05628   2.12747   2.14348   2.16093   2.24793
 Alpha virt. eigenvalues --    2.30245   2.34697   2.41190
          Condensed to atoms (all electrons):
              1          2          3          4          5          6
     1  S   15.623467   0.000153  -0.001527   0.000031   0.000005  -0.000012
     2  S    0.000153  15.299225   0.000000   0.000000   0.000000   0.000000
     3  O   -0.001527   0.000000   8.132357   0.000000  -0.000350   0.000000
     4  O    0.000031   0.000000   0.000000   8.672661   0.000003   0.004069
     5  O    0.000005   0.000000  -0.000350   0.000003   8.436150  -0.102247
     6  O   -0.000012   0.000000   0.000000   0.004069  -0.102247   8.476852
     7  O   -0.000020   0.000001  -0.000685   0.000000   0.000000   0.000000
     8  O    0.000000   0.000002   0.000000   0.000000   0.000000   0.000000
     9  N   -0.114519   0.000000  -0.054176  -0.000009   0.005709   0.001588
    10  N    0.005939   0.000416   0.001679   0.000000   0.000000   0.000000
    11  N   -0.000001  -0.000003   0.000002   0.000000   0.000000   0.000000
    12  N   -0.000001  -0.081298   0.000000   0.000000   0.000000   0.000000
    13  N    0.000000  -0.051740   0.000000   0.000000   0.000000   0.000000
    14  C    0.197839  -0.000007   0.003904  -0.000004   0.000048  -0.000039
    15  C   -0.086561   0.000001  -0.062976   0.000000  -0.000004   0.000001
    16  C    0.011282  -0.000001   0.506204   0.000000   0.000822   0.000006
    17  C   -0.001378   0.000000   0.003360   0.001159  -0.091410  -0.117972
    18  C   -0.084576   0.000000   0.000108  -0.071067   0.002285   0.012552
    19  C    0.150712  -0.000001   0.000024   0.003804  -0.000017   0.000215
    20  C    0.004225   0.000000   0.000001   0.160989  -0.000583  -0.093193
    21  C   -0.000402   0.000000   0.001013  -0.000395   0.212221   0.452869
    22  C    0.000143   0.000080   0.003550   0.000000   0.000000   0.000000
    23  C   -0.000206  -0.001681  -0.000150   0.000000   0.000000   0.000000
    24  C    0.000262  -0.132393  -0.000009   0.000000   0.000000   0.000000
    25  C    0.000003   0.000000   0.000000   0.145689   0.000001  -0.000041
    26  C   -0.001622   0.258980   0.000005   0.000000   0.000000   0.000000
    27  C   -0.000002   0.206457   0.000000   0.000000   0.000000   0.000000
    28  C    0.000000   0.000000   0.000000   0.000000   0.000000   0.000000
    29  H   -0.061909   0.000000  -0.000121  -0.000001   0.000000   0.000000
    30  H    0.003727   0.000000  -0.000008   0.000000   0.000000   0.000000
    31  H   -0.033935   0.000000   0.000000   0.000359   0.000000   0.000003
    32  H   -0.037775   0.000000   0.000000  -0.000205   0.000000   0.000005
    33  H   -0.000426  -0.000043  -0.000061   0.000000   0.000000   0.000000
    34  H   -0.000196   0.000000   0.000000  -0.055540   0.000003   0.002738
    35  H   -0.000201   0.000000   0.000000  -0.046596  -0.000315  -0.027115
    36  H    0.000000   0.000000   0.000016  -0.000001   0.256526   0.001186
    37  H    0.000000   0.000000   0.000000  -0.029868   0.000000   0.000004
    38  H    0.000000   0.000000   0.000000  -0.044738   0.000000   0.000674
    39  H    0.000000   0.000000   0.000000  -0.048397   0.000000   0.000050
    40  H    0.004096  -0.006448  -0.000022   0.000000   0.000000   0.000000
    41  H    0.000000   0.002450   0.000000   0.000000   0.000000   0.000000
    42  H    0.000000  -0.000336   0.000000   0.000000   0.000000   0.000000
    43  H    0.000000   0.000000   0.000000   0.000000   0.000000   0.000000
    44  H    0.000000   0.000000   0.000000   0.000000   0.000000   0.000000
    45  H    0.000000   0.000000   0.000000   0.000000   0.000000   0.000000
              7          8          9         10         11         12
     1  S   -0.000020   0.000000  -0.114519   0.005939  -0.000001  -0.000001
     2  S    0.000001   0.000002   0.000000   0.000416  -0.000003  -0.081298
     3  O   -0.000685   0.000000  -0.054176   0.001679   0.000002   0.000000
     4  O    0.000000   0.000000  -0.000009   0.000000   0.000000   0.000000
     5  O    0.000000   0.000000   0.005709   0.000000   0.000000   0.000000
     6  O    0.000000   0.000000   0.001588   0.000000   0.000000   0.000000
     7  O    8.234488  -0.027584  -0.000008  -0.141006   0.000499  -0.000003
     8  O   -0.027584   8.592990   0.000000  -0.000158   0.028413  -0.000022
     9  N   -0.000008   0.000000   7.862193   0.010895   0.000000   0.000000
    10  N   -0.141006  -0.000158   0.010895   7.714818   0.002686   0.000131
    11  N    0.000499   0.028413   0.000000   0.002686   6.859299   0.006081
    12  N   -0.000003  -0.000022   0.000000   0.000131   0.006081   7.060951
    13  N    0.000000   0.000000   0.000000   0.000000  -0.000004  -0.076050
    14  C    0.000259   0.000000   0.000291  -0.045479   0.000000   0.000000
    15  C    0.005627   0.000012  -0.236664   0.118542  -0.000168   0.000000
    16  C   -0.000583  -0.000001   0.139068  -0.038245  -0.000001   0.000000
    17  C    0.000000   0.000000   0.186881  -0.000357   0.000000   0.000000
    18  C    0.000000   0.000000  -0.068248   0.000026   0.000000   0.000000
    19  C    0.000000   0.000000  -0.005515  -0.000020   0.000000   0.000000
    20  C    0.000000   0.000000   0.001680   0.000000   0.000000   0.000000
    21  C    0.000000   0.000000  -0.029118   0.000001   0.000000   0.000000
    22  C    0.513289  -0.006311  -0.000271   0.114092  -0.081114   0.001641
    23  C   -0.105696  -0.086631   0.000000  -0.131525   0.463995  -0.026832
    24  C    0.002896   0.004042  -0.000001   0.023866  -0.073376   0.398370
    25  C    0.000000   0.000000   0.000001   0.000000   0.000000   0.000000
    26  C   -0.000204  -0.000006  -0.000003  -0.051958   0.004397  -0.137087
    27  C    0.000000  -0.000001   0.000000   0.000016  -0.000179   0.343317
    28  C    0.000678   0.125578   0.000000   0.000001  -0.078016   0.000005
    29  H    0.000003   0.000000  -0.034869   0.000513   0.000000   0.000000
    30  H    0.009975   0.000004   0.005785  -0.054594  -0.000003   0.000000
    31  H    0.000000   0.000000  -0.000905  -0.000005   0.000000   0.000000
    32  H    0.000000   0.000000  -0.000069   0.000003   0.000000   0.000000
    33  H    0.000588   0.000009  -0.000280   0.319343  -0.000098   0.000003
    34  H    0.000000   0.000000  -0.000078   0.000000   0.000000   0.000000
    35  H    0.000000   0.000000   0.000061   0.000000   0.000000   0.000000
    36  H    0.000000   0.000000  -0.000240   0.000000   0.000000   0.000000
    37  H    0.000000   0.000000   0.000000   0.000000   0.000000   0.000000
    38  H    0.000000   0.000000   0.000000   0.000000   0.000000   0.000000
    39  H    0.000000   0.000000   0.000000   0.000000   0.000000   0.000000
    40  H    0.000028   0.000001   0.000024  -0.006450   0.000056   0.001596
    41  H    0.000000   0.000000   0.000000   0.000000   0.000001   0.000995
    42  H    0.000000   0.000000   0.000000   0.000000   0.000000   0.003262
    43  H   -0.000078  -0.043689   0.000000  -0.000001  -0.000913   0.000000
    44  H    0.000007  -0.025082   0.000000   0.000000   0.004882   0.000000
    45  H   -0.000026  -0.042099   0.000000   0.000000   0.003924   0.000001
             13         14         15         16         17         18
     1  S    0.000000   0.197839  -0.086561   0.011282  -0.001378  -0.084576
     2  S   -0.051740  -0.000007   0.000001  -0.000001   0.000000   0.000000
     3  O    0.000000   0.003904  -0.062976   0.506204   0.003360   0.000108
     4  O    0.000000  -0.000004   0.000000   0.000000   0.001159  -0.071067
     5  O    0.000000   0.000048  -0.000004   0.000822  -0.091410   0.002285
     6  O    0.000000  -0.000039   0.000001   0.000006  -0.117972   0.012552
     7  O    0.000000   0.000259   0.005627  -0.000583   0.000000   0.000000
     8  O    0.000000   0.000000   0.000012  -0.000001   0.000000   0.000000
     9  N    0.000000   0.000291  -0.236664   0.139068   0.186881  -0.068248
    10  N    0.000000  -0.045479   0.118542  -0.038245  -0.000357   0.000026
    11  N   -0.000004   0.000000  -0.000168  -0.000001   0.000000   0.000000
    12  N   -0.076050   0.000000   0.000000   0.000000   0.000000   0.000000
    13  N    7.027438   0.000000   0.000000   0.000000   0.000000   0.000000
    14  C    0.000000   6.068792   0.097629  -0.237340  -0.041275  -0.005524
    15  C    0.000000   0.097629   5.642886   0.205921   0.020015  -0.001354
    16  C    0.000000  -0.237340   0.205921   4.757261  -0.040662   0.001185
    17  C    0.000000  -0.041275   0.020015  -0.040662   5.239245   0.463110
    18  C    0.000000  -0.005524  -0.001354   0.001185   0.463110   5.483545
    19  C    0.000000  -0.054041   0.006800  -0.001138  -0.044020   0.152374
    20  C    0.000000   0.000249  -0.000009  -0.000012  -0.013879   0.251067
    21  C    0.000000   0.003253  -0.000170  -0.002137   0.274866  -0.043690
    22  C    0.000000   0.006308  -0.058086  -0.004034   0.000012   0.000000
    23  C    0.000083  -0.000005   0.004815   0.000025   0.000000   0.000000
    24  C    0.004025   0.000009  -0.000988   0.000022   0.000000   0.000000
    25  C    0.000000   0.000000   0.000000   0.000000  -0.000069   0.007021
    26  C    0.002084   0.000062   0.001445   0.000124   0.000000  -0.000001
    27  C    0.224406   0.000000   0.000000   0.000000   0.000000   0.000000
    28  C    0.000000   0.000000   0.000000   0.000000   0.000000   0.000000
    29  H    0.000000   0.378014  -0.032061   0.013186  -0.001609   0.000212
    30  H    0.000000  -0.036206   0.405397  -0.033523  -0.000142  -0.000007
    31  H    0.000000  -0.006987  -0.000211   0.000042  -0.003447  -0.045697
    32  H    0.000000   0.003659  -0.000071   0.000014   0.003080  -0.032081
    33  H    0.000000  -0.002984  -0.029391   0.003356   0.000008   0.000000
    34  H    0.000000   0.000014   0.000000   0.000002   0.004279  -0.049023
    35  H    0.000000  -0.000004   0.000000   0.000007   0.002759  -0.051220
    36  H    0.000000   0.000001   0.000000  -0.000002   0.006303  -0.000099
    37  H    0.000000   0.000000   0.000000   0.000000   0.000001  -0.000172
    38  H    0.000000   0.000000   0.000000   0.000000   0.000033  -0.000525
    39  H    0.000000   0.000000   0.000000   0.000000   0.000010  -0.000402
    40  H   -0.000002   0.000409   0.000447  -0.000014  -0.000001   0.000007
    41  H    0.329728   0.000000   0.000000   0.000000   0.000000   0.000000
    42  H    0.319851   0.000000   0.000000   0.000000   0.000000   0.000000
    43  H    0.000000   0.000000   0.000000   0.000000   0.000000   0.000000
    44  H    0.000000   0.000000   0.000000   0.000000   0.000000   0.000000
    45  H    0.000000   0.000000   0.000000   0.000000   0.000000   0.000000
             19         20         21         22         23         24
     1  S    0.150712   0.004225  -0.000402   0.000143  -0.000206   0.000262
     2  S   -0.000001   0.000000   0.000000   0.000080  -0.001681  -0.132393
     3  O    0.000024   0.000001   0.001013   0.003550  -0.000150  -0.000009
     4  O    0.003804   0.160989  -0.000395   0.000000   0.000000   0.000000
     5  O   -0.000017  -0.000583   0.212221   0.000000   0.000000   0.000000
     6  O    0.000215  -0.093193   0.452869   0.000000   0.000000   0.000000
     7  O    0.000000   0.000000   0.000000   0.513289  -0.105696   0.002896
     8  O    0.000000   0.000000   0.000000  -0.006311  -0.086631   0.004042
     9  N   -0.005515   0.001680  -0.029118  -0.000271   0.000000  -0.000001
    10  N   -0.000020   0.000000   0.000001   0.114092  -0.131525   0.023866
    11  N    0.000000   0.000000   0.000000  -0.081114   0.463995  -0.073376
    12  N    0.000000   0.000000   0.000000   0.001641  -0.026832   0.398370
    13  N    0.000000   0.000000   0.000000   0.000000   0.000083   0.004025
    14  C   -0.054041   0.000249   0.003253   0.006308  -0.000005   0.000009
    15  C    0.006800  -0.000009  -0.000170  -0.058086   0.004815  -0.000988
    16  C   -0.001138  -0.000012  -0.002137  -0.004034   0.000025   0.000022
    17  C   -0.044020  -0.013879   0.274866   0.000012   0.000000   0.000000
    18  C    0.152374   0.251067  -0.043690   0.000000   0.000000   0.000000
    19  C    5.731066  -0.024909   0.002760   0.000000   0.000000   0.000000
    20  C   -0.024909   5.024209  -0.016839   0.000000   0.000000   0.000000
    21  C    0.002760  -0.016839   4.335210   0.000000   0.000000   0.000000
    22  C    0.000000   0.000000   0.000000   4.761469   0.170192  -0.070227
    23  C    0.000000   0.000000   0.000000   0.170192   5.353061   0.232534
    24  C    0.000000   0.000000   0.000000  -0.070227   0.232534   5.076143
    25  C   -0.000043  -0.064593   0.000091   0.000000   0.000000   0.000000
    26  C    0.000036   0.000000   0.000000  -0.012231  -0.069523   0.319727
    27  C    0.000000   0.000000   0.000000  -0.000041   0.009677  -0.072211
    28  C    0.000000   0.000000   0.000000  -0.000254   0.004739  -0.000053
    29  H   -0.005650   0.000045   0.000035  -0.000117   0.000001   0.000000
    30  H   -0.000060   0.000000   0.000003  -0.000425   0.000147  -0.000002
    31  H    0.361423   0.000782  -0.000098   0.000000   0.000000   0.000000
    32  H    0.394033  -0.002735  -0.000037   0.000000   0.000000   0.000000
    33  H   -0.000022   0.000000   0.000000  -0.024593   0.000477   0.000267
    34  H   -0.009161   0.372421   0.000925   0.000000   0.000000   0.000000
    35  H    0.002801   0.419692  -0.014909   0.000000   0.000000   0.000000
    36  H    0.000000   0.000034  -0.019497   0.000000   0.000000   0.000000
    37  H    0.000006   0.005322  -0.000003   0.000000   0.000000   0.000000
    38  H    0.000006  -0.006063  -0.000113   0.000000   0.000000   0.000000
    39  H   -0.000039  -0.007833   0.000008   0.000000   0.000000   0.000000
    40  H   -0.000173   0.000000   0.000000  -0.002855   0.001449  -0.011963
    41  H    0.000000   0.000000   0.000000   0.000000  -0.000018   0.000252
    42  H    0.000000   0.000000   0.000000   0.000000  -0.000001  -0.000243
    43  H    0.000000   0.000000   0.000000   0.000089   0.001601  -0.000080
    44  H    0.000000   0.000000   0.000000   0.000044  -0.000234  -0.000002
    45  H    0.000000   0.000000   0.000000   0.000041  -0.000764   0.000003
             25         26         27         28         29         30
     1  S    0.000003  -0.001622  -0.000002   0.000000  -0.061909   0.003727
     2  S    0.000000   0.258980   0.206457   0.000000   0.000000   0.000000
     3  O    0.000000   0.000005   0.000000   0.000000  -0.000121  -0.000008
     4  O    0.145689   0.000000   0.000000   0.000000  -0.000001   0.000000
     5  O    0.000001   0.000000   0.000000   0.000000   0.000000   0.000000
     6  O   -0.000041   0.000000   0.000000   0.000000   0.000000   0.000000
     7  O    0.000000  -0.000204   0.000000   0.000678   0.000003   0.009975
     8  O    0.000000  -0.000006  -0.000001   0.125578   0.000000   0.000004
     9  N    0.000001  -0.000003   0.000000   0.000000  -0.034869   0.005785
    10  N    0.000000  -0.051958   0.000016   0.000001   0.000513  -0.054594
    11  N    0.000000   0.004397  -0.000179  -0.078016   0.000000  -0.000003
    12  N    0.000000  -0.137087   0.343317   0.000005   0.000000   0.000000
    13  N    0.000000   0.002084   0.224406   0.000000   0.000000   0.000000
    14  C    0.000000   0.000062   0.000000   0.000000   0.378014  -0.036206
    15  C    0.000000   0.001445   0.000000   0.000000  -0.032061   0.405397
    16  C    0.000000   0.000124   0.000000   0.000000   0.013186  -0.033523
    17  C   -0.000069   0.000000   0.000000   0.000000  -0.001609  -0.000142
    18  C    0.007021  -0.000001   0.000000   0.000000   0.000212  -0.000007
    19  C   -0.000043   0.000036   0.000000   0.000000  -0.005650  -0.000060
    20  C   -0.064593   0.000000   0.000000   0.000000   0.000045   0.000000
    21  C    0.000091   0.000000   0.000000   0.000000   0.000035   0.000003
    22  C    0.000000  -0.012231  -0.000041  -0.000254  -0.000117  -0.000425
    23  C    0.000000  -0.069523   0.009677   0.004739   0.000001   0.000147
    24  C    0.000000   0.319727  -0.072211  -0.000053   0.000000  -0.000002
    25  C    4.875894   0.000000   0.000000   0.000000   0.000000   0.000000
    26  C    0.000000   6.016408  -0.070827   0.000003   0.000000  -0.000060
    27  C    0.000000  -0.070827   5.288774   0.000000   0.000000   0.000000
    28  C    0.000000   0.000003   0.000000   4.900051   0.000000   0.000000
    29  H    0.000000   0.000000   0.000000   0.000000   0.490430  -0.002585
    30  H    0.000000  -0.000060   0.000000   0.000000  -0.002585   0.415744
    31  H   -0.000004   0.000000   0.000000   0.000000   0.005472   0.000002
    32  H   -0.000004   0.000000   0.000000   0.000000  -0.000071   0.000000
    33  H    0.000000   0.000180   0.000001   0.000000   0.000337  -0.000952
    34  H   -0.003154   0.000000   0.000000   0.000000   0.000000   0.000000
    35  H   -0.001292   0.000000   0.000000   0.000000   0.000000   0.000000
    36  H    0.000000   0.000000   0.000000   0.000000   0.000000   0.000000
    37  H    0.394286   0.000000   0.000000   0.000000   0.000000   0.000000
    38  H    0.390819   0.000000   0.000000   0.000000   0.000000   0.000000
    39  H    0.383486   0.000000   0.000000   0.000000   0.000000   0.000000
    40  H    0.000000   0.359616   0.001024   0.000000   0.000025  -0.000026
    41  H    0.000000  -0.000089  -0.037199   0.000000   0.000000   0.000000
    42  H    0.000000   0.000035  -0.033717   0.000000   0.000000   0.000000
    43  H    0.000000  -0.000001   0.000000   0.385474   0.000000   0.000000
    44  H    0.000000   0.000000   0.000000   0.388510   0.000000   0.000000
    45  H    0.000000   0.000000   0.000000   0.386069   0.000000   0.000000
             31         32         33         34         35         36
     1  S   -0.033935  -0.037775  -0.000426  -0.000196  -0.000201   0.000000
     2  S    0.000000   0.000000  -0.000043   0.000000   0.000000   0.000000
     3  O    0.000000   0.000000  -0.000061   0.000000   0.000000   0.000016
     4  O    0.000359  -0.000205   0.000000  -0.055540  -0.046596  -0.000001
     5  O    0.000000   0.000000   0.000000   0.000003  -0.000315   0.256526
     6  O    0.000003   0.000005   0.000000   0.002738  -0.027115   0.001186
     7  O    0.000000   0.000000   0.000588   0.000000   0.000000   0.000000
     8  O    0.000000   0.000000   0.000009   0.000000   0.000000   0.000000
     9  N   -0.000905  -0.000069  -0.000280  -0.000078   0.000061  -0.000240
    10  N   -0.000005   0.000003   0.319343   0.000000   0.000000   0.000000
    11  N    0.000000   0.000000  -0.000098   0.000000   0.000000   0.000000
    12  N    0.000000   0.000000   0.000003   0.000000   0.000000   0.000000
    13  N    0.000000   0.000000   0.000000   0.000000   0.000000   0.000000
    14  C   -0.006987   0.003659  -0.002984   0.000014  -0.000004   0.000001
    15  C   -0.000211  -0.000071  -0.029391   0.000000   0.000000   0.000000
    16  C    0.000042   0.000014   0.003356   0.000002   0.000007  -0.000002
    17  C   -0.003447   0.003080   0.000008   0.004279   0.002759   0.006303
    18  C   -0.045697  -0.032081   0.000000  -0.049023  -0.051220  -0.000099
    19  C    0.361423   0.394033  -0.000022  -0.009161   0.002801   0.000000
    20  C    0.000782  -0.002735   0.000000   0.372421   0.419692   0.000034
    21  C   -0.000098  -0.000037   0.000000   0.000925  -0.014909  -0.019497
    22  C    0.000000   0.000000  -0.024593   0.000000   0.000000   0.000000
    23  C    0.000000   0.000000   0.000477   0.000000   0.000000   0.000000
    24  C    0.000000   0.000000   0.000267   0.000000   0.000000   0.000000
    25  C   -0.000004  -0.000004   0.000000  -0.003154  -0.001292   0.000000
    26  C    0.000000   0.000000   0.000180   0.000000   0.000000   0.000000
    27  C    0.000000   0.000000   0.000001   0.000000   0.000000   0.000000
    28  C    0.000000   0.000000   0.000000   0.000000   0.000000   0.000000
    29  H    0.005472  -0.000071   0.000337   0.000000   0.000000   0.000000
    30  H    0.000002   0.000000  -0.000952   0.000000   0.000000   0.000000
    31  H    0.493551  -0.016053   0.000001   0.000305  -0.000051   0.000000
    32  H   -0.016053   0.444091   0.000000   0.002765  -0.000061   0.000000
    33  H    0.000001   0.000000   0.364272   0.000000   0.000000   0.000000
    34  H    0.000305   0.002765   0.000000   0.632603  -0.043003   0.000000
    35  H   -0.000051  -0.000061   0.000000  -0.043003   0.472936   0.000039
    36  H    0.000000   0.000000   0.000000   0.000000   0.000039   0.312192
    37  H   -0.000002   0.000001   0.000000  -0.000219  -0.000159   0.000000
    38  H    0.000001  -0.000001   0.000000  -0.001386   0.007102   0.000000
[...]
 0.00004500,-0.00002170,0.00000125,-0.00033703,-0.00009671,-0.00020383,
 -0.00042845,0.00009209,0.00018282,0.00013653,0.00054737,-0.00102539,-0
 .00002874,0.00000640,-0.00001087,-0.00049077,-0.00037046,-0.00078099,-
 0.02223825,-0.00250468,-0.02382738,0.00000910,0.00001190,-0.00019603,0
 .00000514,-0.00000317,0.00000225,-0.00000830,-0.00000433,-0.00000290,0
 .00000729,-0.00000002,-0.00000196,0.00000247,0.00000160,0.00000153,-0.
 00003484,0.00000307,0.00001462,0.00000309,-0.00000240,0.00000344,0.000
 00474,-0.00000161,0.00000073,-0.00000836,-0.00000084,0.00000691,0.0000
 0114,-0.00000285,0.00000161,0.00000442,0.00000129,-0.00000089,0.000002
 86,0.00000165,0.00000195,0.00024069,-0.00009653,0.00033870,0.01017785,
 0.00033262,0.00781753,0.40392989,-0.00000036,-0.00000948,0.00000240,0.
 00013936,0.00074466,-0.00053663,0.00001325,-0.00008430,-0.00000136,-0.
 00000035,-0.00001067,0.00000298,0.00000603,-0.00002156,0.00001828,-0.0
 0000530,-0.00001651,0.00000557,-0.00006087,-0.00004973,-0.00004601,-0.
 00006918,-0.00003608,-0.00003056,0.00002273,-0.00004908,0.00000717,-0.
 00004286,-0.00007461,0.00000158,-0.00000547,0.00000730,-0.00001522,0.0
 0152959,-0.00050029,-0.00106074,0.01635797,-0.01454908,-0.01840797,0.0
 0000920,0.00002341,-0.00000343,0.00000277,0.00002473,-0.00001809,-0.00
 003542,0.00011171,-0.00000444,-0.00000929,-0.00001621,0.00000733,-0.00
 000399,0.00000936,-0.00001192,0.00001077,-0.00000535,0.00000967,-0.000
 00213,0.00000901,0.00000003,0.00000781,0.00003668,-0.00002389,0.000099
 05,0.00006102,0.00010034,0.00024312,-0.00004078,-0.00012898,0.00056281
 ,0.00409408,-0.00057830,0.00000002,0.00000287,-0.00000051,0.00018779,-
 0.00133686,0.00038877,0.00845609,-0.00240598,0.00964888,0.00000615,0.0
 0005326,0.00000839,0.00000257,-0.00000189,0.00000205,0.00000073,0.0000
 0911,0.00000086,-0.00000235,0.00000027,-0.00000081,-0.00000051,0.00000
 189,0.00000027,0.00000322,0.00003645,-0.00001678,0.00000090,-0.0000009
 2,-0.00000050,-0.00000108,0.00000020,0.00000033,-0.00000595,0.00000864
 ,-0.00000305,0.00000101,-0.00000121,0.00000059,-0.00000036,0.00000019,
 0.00000081,0.00000028,-0.00000024,-0.00000094,-0.00022136,-0.00074681,
 0.00011099,-0.00994901,0.00210076,-0.00402914,-0.01725480,0.01263829,0
 .00000102,0.00000176,-0.00000157,0.00035724,-0.00037562,-0.00031365,0.
 00000360,0.00002564,-0.00000209,0.00000426,0.00000069,-0.00000115,0.00
 000032,0.00000770,-0.00001245,0.00000424,0.00000639,-0.00000443,0.0000
 0561,0.00000551,-0.00002455,-0.00003245,-0.00000267,-0.00005892,0.0000
 1032,0.00000903,-0.00000273,0.00008050,0.00001878,-0.00003494,-0.00006
 870,0.00002849,-0.00001129,0.00428007,-0.00120189,-0.00153291,-0.21773
 405,-0.01746106,-0.23531974,-0.00000173,-0.00000324,0.00000129,-0.0000
 1082,0.00000425,0.00002347,-0.00000486,-0.00003284,-0.00000219,-0.0000
 0195,0.00000432,-0.00000220,0.00000387,-0.00000353,0.00000420,-0.00000
 692,0.00000242,-0.00000364,-0.00000167,-0.00000050,0.00000023,-0.00000
 551,-0.00001452,0.00001470,-0.00001509,0.00000322,0.00012577,0.0003680
 9,-0.00015778,-0.00042055,-0.00040946,-0.00070851,0.00147848,-0.000002
 76,0.00000018,0.00000037,0.00121080,0.00004389,-0.00048883,0.02021825,
 0.00150121,0.01739662,-0.00000858,-0.00001195,0.00001612,0.00000120,-0
 .00000054,-0.00000037,-0.00000251,-0.00000344,0.00000106,0.00000177,-0
 .00000007,0.00000027,0.00000043,-0.00000031,0.00000010,-0.00000146,-0.
 00000956,-0.00000417,-0.00000015,-0.00000007,0.00000016,0.00000107,-0.
 00000021,-0.00000009,0.00000096,-0.00000213,0.00000395,-0.00000022,0.0
 0000014,0.00000021,0.00000071,0.00000021,-0.00000058,0.00000015,-0.000
 00016,0.00000016,-0.00010862,0.00017638,-0.00014060,-0.03236671,0.0035
 4147,-0.00870895,0.22422866,0.01460377,0.22802969,-0.00000544,-0.00004
 420,0.00000537,0.00012887,-0.00003303,0.00003390,0.00000139,-0.0001931
 1,-0.00007815,-0.00002973,-0.00000358,-0.00001205,-0.00000926,-0.00002
 176,0.00000341,-0.00003496,-0.00003857,-0.00001347,-0.00013684,0.00006
 180,0.00013203,0.00000850,0.00272586,0.00326558,-0.00002446,-0.0000915
 0,0.00000879,-0.00032814,-0.00019390,0.00009789,0.00088492,-0.00073952
 ,-0.00049712,0.00008964,-0.00003212,0.00008911,0.00010989,-0.00004577,
 -0.00003814,0.00000293,0.00007243,-0.00001976,0.00004087,0.00003613,-0
 .00006537,-0.00001355,0.00027324,0.00005422,0.00001215,-0.00002797,0.0
 0001653,-0.00002456,0.00003504,-0.00002866,0.00006191,-0.00000278,0.00
 005851,0.00000990,0.00000185,0.00001806,0.00004582,0.00006042,0.000002
 38,0.00047010,-0.00022568,-0.00027810,-0.00012872,-0.00022628,-0.00003
 902,-0.00000323,0.00027812,0.00011284,0.00001787,-0.00000131,0.0000123
 3,-0.00004015,-0.00001659,-0.00004002,-0.00012248,0.00004772,0.0000428
 8,-0.13930347,0.12233132,0.03569826,-0.00000654,-0.00001660,0.00002418
 ,0.00000640,0.00000585,0.00000609,-0.00002894,-0.00000317,-0.00000038,
 0.00000171,0.00000118,-0.00000180,0.00004175,0.00031394,-0.00001850,-0
 .00000462,-0.00000011,-0.00000482,-0.00000598,0.00000006,-0.00000190,-
 0.00000217,0.00000848,0.00000221,-0.00000020,0.00000076,-0.00000029,-0
 .00000338,-0.00000037,-0.00000052,-0.00000287,-0.00000222,-0.00000339,
 0.00001856,0.00001061,-0.00001690,-0.00001927,0.00001167,-0.00000640,-
 0.00001679,0.00000818,-0.00000033,0.14040718,-0.00000137,0.00000717,0.
 00001446,-0.00007578,0.00002857,0.00003925,0.00000534,0.00007284,0.000
 01030,0.00002972,-0.00000250,0.00000831,0.00000870,0.00001634,-0.00001
 652,0.00002765,0.00002484,0.00000081,-0.00004673,0.00000952,-0.0000799
 6,-0.00079715,0.00748697,0.00032208,0.00001743,0.00004875,-0.00002444,
 0.00003838,0.00007022,-0.00009506,0.00024298,0.00015443,0.00054022,-0.
 00003487,0.00004543,0.00011519,-0.00003236,0.00001998,0.00006315,-0.00
 000528,-0.00003735,0.00004413,-0.00001547,-0.00002421,0.00001249,0.000
 00623,-0.00009365,-0.00000424,-0.00001050,0.00001829,-0.00000908,0.000
 02095,-0.00002483,0.00002178,-0.00004590,0.00002121,-0.00004708,-0.000
 01080,0.00000494,-0.00001220,-0.00003609,-0.00004378,0.00001620,0.0000
 3421,-0.00000879,0.00030001,-0.00071879,0.00000698,0.00014444,0.000107
 83,-0.00012150,-0.00019549,-0.00002005,0.00000255,-0.00000875,-0.00000
 037,0.00002576,0.00006434,0.00000328,-0.00003618,-0.00013325,0.1222193
 0,-0.27136748,-0.05957825,-0.00000061,0.00000720,-0.00001334,0.0000048
 7,-0.00000159,-0.00000174,0.00001430,-0.00000023,0.00000204,-0.0000008
 6,-0.00000326,0.00000124,-0.00002948,-0.00005892,0.00006543,0.00000188
 ,-0.00000016,0.00000266,0.00000523,-0.00000054,0.00000093,-0.00000100,
 -0.00000480,0.00000483,-0.00000023,-0.00000105,0.00000066,0.00000364,0
 .00000089,-0.00000067,0.00000230,0.00000159,0.00000232,0.00000371,-0.0
 0000684,0.00001121,-0.00002784,0.00000060,-0.00003693,-0.00000135,-0.0
 0000122,-0.00000109,-0.13618400,0.28427680,0.00000733,0.00000682,0.000
 06056,-0.00016348,-0.00000415,0.00001862,0.00005287,0.00010936,0.00004
 381,0.00001711,-0.00000898,0.00001792,0.00001589,-0.00000039,0.0000095
 4,0.00002154,0.00001568,0.00001182,0.00003049,-0.00007096,-0.00049344,
 0.02416156,-0.03416705,-0.03647786,0.00015020,-0.00004638,0.00007010,0
 .00042778,0.00036728,-0.00061711,0.00465365,-0.00041692,0.00460643,-0.
 00012662,0.00009107,0.00005847,-0.00006885,0.00004797,0.00006468,-0.00
 003477,0.00007825,-0.00007336,-0.00031297,0.00004361,0.00001044,-0.000
 16056,-0.00013587,-0.00007791,-0.00004506,-0.00001550,-0.00000732,0.00
 001889,0.00000458,0.00000174,-0.00002769,-0.00001190,-0.00000749,-0.00
 001042,0.00000612,-0.00001417,-0.00002400,-0.00000673,-0.00001869,-0.0
 0009392,-0.00037924,0.00099179,-0.00044416,0.00009920,-0.00007086,0.00
 024814,0.00030727,-0.00028125,-0.00001005,0.00000167,-0.00000987,0.000
 00910,0.00000031,0.00005342,0.00002896,-0.00005500,-0.00013093,0.02644
 778,-0.05040902,-0.07156474,0.00001401,-0.00002200,0.00003437,0.000048
 68,-0.00002370,-0.00004142,0.00000704,0.00000016,-0.00000036,0.0000209
 8,-0.00000220,-0.00000020,-0.00068513,-0.00059577,0.00046826,0.0000072
 5,-0.00000060,0.00000474,0.00000244,-0.00000023,0.00000234,-0.00000181
 ,-0.00000268,0.00000031,0.00000214,-0.00000205,0.00000018,0.00000113,-
 0.00000006,0.00000179,0.00000243,0.00000210,0.00000160,0.00001409,0.00
 001847,0.00001596,-0.00002253,-0.00001405,-0.00001926,0.00000500,-0.00
 000509,0.00000010,-0.04242682,0.06444390,0.09070305,-0.00002977,0.0000
 1735,0.00001894,-0.00004667,0.00000850,-0.00001846,0.00002776,0.000037
 77,0.00002895,0.00000908,-0.00000551,0.00001206,0.00000870,-0.00000359
 ,0.00001365,0.00001208,0.00000749,0.00001104,0.00013173,-0.00002331,-0
 .00011395,0.00659653,0.00012790,0.00619732,0.00006166,-0.00002038,0.00
 003978,0.00028982,0.00005001,-0.00009446,0.00196138,0.00009074,0.00208
 928,-0.00008968,0.00002987,-0.00010826,-0.00007372,0.00002960,0.000009
 69,-0.00001460,0.00000995,-0.00005333,-0.00008546,0.00001480,0.0000179
 4,-0.00006776,-0.00004498,-0.00003789,-0.00002003,-0.00000795,-0.00000
 503,-0.00000141,0.00000795,-0.00000315,-0.00000097,-0.00001046,0.00002
 492,-0.00000573,0.00000323,-0.00000834,-0.00001407,0.00000003,-0.00002
 030,-0.00039873,-0.00002545,0.00006778,0.00113970,-0.00003440,-0.00003
 551,-0.00002801,0.00000182,0.00022060,-0.00000536,0.00000018,-0.000007
 70,0.00007860,-0.00000787,0.00001974,0.00010330,-0.00002520,0.00002451
 ,-0.32661868,-0.00072976,-0.10949928,0.00000487,-0.00000389,0.00001043
 ,0.00000405,-0.00000768,-0.00000842,-0.00000383,0.00000116,-0.00000483
 ,0.00000195,0.00000624,-0.00000012,-0.00012717,-0.00005366,-0.00004846
 ,0.00000254,-0.00000079,0.00000237,0.00000049,-0.00000047,0.00000103,-
 0.00000152,-0.00000060,-0.00000292,0.00000154,-0.00000139,-0.00000037,
 0.00000022,-0.00000034,0.00000175,0.00000137,0.00000194,0.00000120,-0.
 00001219,-0.00000123,0.00000938,0.00002164,-0.00001105,0.00000905,0.00
 001339,-0.00000533,0.00000159,-0.01374370,-0.00256637,-0.00651108,0.34
 496676,0.00004991,-0.00010054,-0.00000925,-0.00000771,0.00000423,0.000
 00070,0.00003751,-0.00019023,-0.00008423,-0.00001872,-0.00002310,0.000
 00415,0.00000194,-0.00002965,0.00001279,-0.00002502,-0.00003915,-0.000
 00977,0.00000747,-0.00001957,-0.00004584,-0.00044601,0.00029692,-0.000
 46476,0.00008026,-0.00017268,0.00006008,0.00004368,-0.00017432,-0.0000
 0422,0.00020006,0.00084615,-0.00000644,0.00000828,0.00004342,0.0000047
 6,0.00000056,0.00000961,0.00000127,-0.00001197,0.00015087,-0.00009536,
 -0.00008410,0.00007489,0.00000722,-0.00014267,0.00028935,0.00004237,-0
 .00002238,-0.00005743,0.00002189,-0.00002800,0.00005981,-0.00004364,0.
 00006119,-0.00002965,0.00008782,-0.00000081,0.00001785,0.00001270,0.00
 003650,0.00007513,-0.00000837,-0.00001493,-0.00001109,0.00001909,-0.00
 006578,0.00015287,0.00003836,0.00001280,-0.00003194,-0.00001644,0.0000
 1045,0.00000216,0.00000490,-0.00000432,-0.00000869,0.00001033,0.000001
 32,-0.00000897,-0.00000385,-0.00039239,-0.06459900,0.00000020,0.000004
 71,-0.00003405,0.00005271,0.00000804,-0.00000806,-0.00000350,-0.000029
 51,-0.00000188,-0.00000680,0.00001523,0.00001435,-0.00000397,-0.000042
 31,0.00025710,0.00015936,-0.00000357,-0.00000234,-0.00000323,-0.000006
 01,-0.00000182,-0.00000135,-0.00000560,0.00000890,0.00000291,0.0000029
 0,-0.00000215,-0.00000029,-0.00000325,-0.00000084,0.00000149,-0.000001
 44,-0.00000044,-0.00000320,-0.00000147,0.00000198,0.00000130,-0.000005
 37,-0.00000799,-0.00000291,-0.00000021,-0.00000048,0.00000089,0.029933
 74,0.00307084,0.01308427,0.00076506,0.05750705,-0.00002898,-0.00000495
 ,0.00001683,-0.00029150,0.00004639,-0.00004943,0.00004179,-0.00001024,
 0.00007323,-0.00005995,0.00001855,-0.00001601,-0.00000671,-0.00003305,
 0.00005524,-0.00003969,-0.00003058,0.00001604,0.00043552,0.00001324,-0
 .00011692,-0.04226766,0.00013491,-0.02713632,0.00008643,-0.00011739,0.
 00013682,0.00079457,0.00001548,0.00024830,0.00531750,-0.00052595,-0.00
 863680,-0.00012851,0.00002116,0.00004060,-0.00018085,0.00005154,0.0001
 1478,-0.00000066,0.00017087,-0.00020182,-0.00011226,0.00008623,0.00013
 802,-0.00013440,0.00001031,-0.00013737,0.00000007,-0.00003547,-0.00000
 293,-0.00002969,0.00005582,-0.00004468,0.00010069,0.00002407,0.0001498
 1,0.00002396,-0.00002592,0.00002093,0.00005534,0.00007844,-0.00006627,
 -0.00145249,0.00000846,0.00024184,-0.00315722,0.00022421,-0.00049800,0
 .00044892,-0.00026900,-0.00090102,0.00003891,-0.00001122,0.00001578,-0
 .00010166,0.00004512,0.00009913,0.00018156,-0.00007900,-0.00018754,-0.
 09178324,-0.00013291,-0.09356782,0.00000405,-0.00005250,0.00008121,-0.
 00003132,-0.00001925,0.00000484,-0.00006933,-0.00001017,-0.00000341,0.
 00001435,-0.00001519,-0.00000194,-0.00022682,0.00006133,-0.00057853,0.
 00000220,0.00000097,-0.00000128,-0.00001154,0.00000226,-0.00000136,0.0
 0000179,0.00000510,-0.00001507,-0.00000130,0.00000372,-0.00000174,-0.0
 0000747,-0.00000153,0.00000030,-0.00000499,-0.00000234,-0.00000287,-0.
 00003919,0.00000554,0.00001984,-0.00000624,-0.00000045,-0.00003453,0.0
 0001978,-0.00000188,-0.00000136,0.00875153,0.00094056,0.00647348,0.114
 42024,0.00014097,0.11743857,-0.00003945,0.00001740,0.00001233,0.000151
 73,-0.00000953,0.00002235,-0.00005607,0.00004504,0.00002199,-0.0000152
 8,0.00002555,-0.00001794,-0.00001568,0.00001421,-0.00001136,-0.0000112
 3,0.00000462,-0.00000448,-0.00016183,0.00004510,0.00023871,0.00042838,
 -0.00255990,0.00326179,-0.00012931,0.00010657,-0.00005542,-0.00035165,
 0.00007082,0.00008087,0.00058121,0.00080746,-0.00042022,0.00008986,-0.
 00004580,0.00006630,0.00010551,-0.00004374,-0.00004315,0.00000206,-0.0
 0006352,0.00007809,0.00014049,-0.00008164,-0.00004340,0.00016304,-0.00
 008579,0.00001055,0.00004586,0.00003659,-0.00000689,0.00000706,-0.0000
 2842,0.00002199,-0.00000775,0.00004940,-0.00003305,0.00001390,-0.00002
 027,0.00000491,0.00001063,-0.00002550,0.00001539,0.00052997,0.00011250
 ,-0.00028517,-0.00007601,0.00015421,-0.00008889,-0.00004357,-0.0001594
 9,0.00018004,0.00000997,-0.00000543,0.00000815,-0.00006083,0.00001345,
 -0.00007118,-0.00011970,0.00004425,0.00005514,-0.13950510,-0.12154821,
 0.03857027,-0.00001401,0.00001190,-0.00001934,-0.00000981,0.00001000,0
 .00000824,-0.00000336,-0.00000323,0.00000796,-0.00000796,-0.00001599,0
 .00000097,0.00015751,-0.00006563,-0.00021704,-0.00000178,0.00000305,-0
 .00000171,0.00000014,0.00000203,-0.00000062,0.00000592,-0.00000295,-0.
 00000215,-0.00000372,0.00000361,-0.00000044,-0.00000042,0.00000034,-0.
 00000217,-0.00000170,-0.00000164,0.00000006,0.00001692,-0.00001666,-0.
 00001131,-0.00001255,0.00001566,0.00000051,-0.00001698,0.00000459,-0.0
 0000025,0.01167910,0.01786529,-0.00524661,-0.01405009,-0.02991805,0.00
 943447,0.14057658,-0.00000684,0.00001204,-0.00000497,0.00006972,-0.000
 02944,-0.00002268,-0.00003841,0.00005918,0.00003953,-0.00002488,0.0000
 1841,-0.00001141,-0.00001337,0.00000352,0.00000828,-0.00001696,-0.0000
 0284,0.00000265,0.00005089,0.00004545,0.00010243,0.00158283,0.00845964
 ,-0.00153967,-0.00007030,0.00005039,-0.00000131,-0.00000934,0.00008085
 ,0.00004138,-0.00009519,0.00046228,-0.00039762,0.00005905,0.00008493,-
 0.00010550,0.00004219,0.00004184,-0.00006469,-0.00000614,-0.00001726,-
 0.00000269,0.00004743,-0.00002238,-0.00001049,0.00008242,-0.00010207,-
 0.00001959,0.00002903,0.00001273,-0.00000303,-0.00000673,-0.00000332,0
 .00000360,0.00001522,0.00000563,0.00000631,0.00001379,-0.00001720,0.00
 000629,0.00002020,-0.00000058,-0.00000744,-0.00004967,-0.00014545,-0.0
 0024268,0.00066006,-0.00016552,-0.00003436,-0.00009997,-0.00000616,0.0
 0019579,0.00001755,-0.00000550,0.00000711,0.00000506,0.00000269,-0.000
 05633,-0.00001306,-0.00000519,0.00011643,-0.12178329,-0.26826035,0.064
 30436,-0.00000436,0.00000294,-0.00000117,-0.00000822,0.00000075,0.0000
 0065,-0.00000514,-0.00000048,0.00000197,-0.00000092,-0.00000495,-0.000
 00048,0.00001362,-0.00009966,-0.00008236,-0.00000091,0.00000189,-0.000
 00121,-0.00000254,0.00000141,-0.00000043,0.00000598,-0.00000202,-0.000
 00710,-0.00000158,0.00000264,-0.00000097,-0.00000247,-0.00000067,-0.00
 000015,-0.00000192,-0.00000120,-0.00000059,-0.00000474,-0.00000621,-0.
 00000627,0.00001133,-0.00003864,0.00003420,-0.00000297,-0.00001459,0.0
 0000532,-0.01807428,-0.02358385,0.00766842,0.00238006,0.00267255,-0.00
 078626,0.13523777,0.28051377,0.00000685,0.00002487,0.00004086,-0.00014
 747,0.00007085,-0.00001309,0.00008516,0.00009255,0.00004395,0.00002070
 ,-0.00000741,0.00001742,0.00002208,-0.00000328,0.00001380,0.00002796,0
 .00002053,0.00001707,-0.00006339,-0.00025633,-0.00042540,0.02418225,0.
 03348223,-0.03723194,0.00018640,-0.00006424,0.00007391,0.00069031,-0.0
 0010768,-0.00068620,0.00452494,0.00039438,0.00440007,-0.00013824,-0.00
 001989,0.00005238,-0.00009060,0.00000549,0.00007434,-0.00000905,0.0000
 8107,-0.00008412,-0.00038696,0.00001978,-0.00005645,-0.00022243,-0.000
 10438,-0.00007774,-0.00005870,-0.00001734,-0.00000956,0.00001596,0.000
 00703,-0.00000357,-0.00001883,-0.00002266,0.00000381,-0.00001217,0.000
 00257,-0.00001418,-0.00003287,-0.00000706,-0.00002797,0.00012539,0.000
 86878,0.00086502,-0.00044115,-0.00009582,-0.00027206,0.00018425,-0.000
 45336,-0.00018652,-0.00001209,0.00000049,-0.00001037,-0.00002874,0.000
 01052,0.00002103,0.00005859,-0.00002575,-0.00013132,0.02952118,0.05536
 521,-0.07411835,0.00001999,-0.00002073,0.00002862,0.00007821,-0.000019
 59,-0.00005380,0.00000614,0.00000027,0.,0.00001575,-0.00000538,0.00000
 023,-0.00109582,-0.00019692,0.00068556,0.00000892,-0.00000095,0.000005
 79,0.00000236,0.00000014,0.00000246,-0.00000350,-0.00000222,0.00000011
 ,0.00000183,-0.00000164,0.00000060,0.00000147,0.00000027,0.00000137,0.
 00000250,0.00000203,0.00000204,0.00000649,-0.00001171,0.00002509,-0.00
 000897,0.00001334,-0.00002174,0.00000912,0.00000519,-0.00000301,-0.004
 84418,-0.00693485,0.00618074,-0.00667138,-0.01295510,0.00681946,-0.045
 51828,-0.06913329,0.09405169||0.00000207,0.00000009,0.00000062,-0.0000
 0131,-0.00000050,0.00000094,-0.00000123,0.00000099,0.00000037,-0.00000
 247,0.00000063,0.00000014,-0.00000094,0.00000121,-0.00000272,0.0000005
 2,0.00000007,0.00000112,0.00000366,0.00000086,0.00000304,-0.00000350,0
 .00000212,-0.00000026,-0.00000129,-0.00000439,0.00000063,-0.00000428,-
 0.00000372,-0.00000126,0.00000078,-0.00000395,-0.00000139,0.00000263,0
 .00000043,0.00000176,-0.00000150,0.00000032,0.00000091,-0.00000021,-0.
 00000022,-0.00000257,0.00000030,-0.00000016,-0.00000030,0.00000147,0.0
 0000320,-0.00000005,0.00000484,-0.00000033,0.00000199,0.00000100,0.000
 00167,0.00000009,-0.00000095,0.00000051,-0.00000114,0.00000121,-0.0000
 0269,-0.00000214,-0.00000068,-0.00000151,0.00000241,-0.00000037,-0.000
 00081,-0.00000538,0.00000223,0.00000252,0.00000217,-0.00000134,0.00000
 167,-0.00000032,-0.00000104,0.00000025,-0.00000025,-0.00000125,-0.0000
 0129,0.00000046,0.00000055,-0.00000020,-0.00000319,0.00000123,0.000000
 64,0.00000208,0.00000027,-0.00000052,0.00000073,-0.00000152,0.00000035
 ,0.00000112,0.00000050,-0.00000028,0.00000015,0.00000077,-0.00000006,0
 .00000089,0.00000014,-0.00000018,-0.00000018,-0.00000131,0.00000066,0.
 00000076,-0.00000115,0.00000128,-0.00000066,0.00000068,0.00000002,-0.0
 0000049,-0.00000019,0.00000016,-0.00000016,0.00000004,0.00000007,-0.00
 000008,0.00000016,0.,0.00000007,0.00000140,0.00000111,0.00000066,0.000
 00023,0.00000025,0.00000008,-0.00000017,-0.00000002,-0.00000026,-0.000
 00017,-0.00000023,-0.00000019,-0.00000013,-0.00000016,0.00000043,0.000
 00034,0.00000012,-0.00000064|||@


 HIGGLEDY-PIGGLEDY
 NIC'LAUS COPERNICUS
 LOOKED AT THE UNIVERSE,
 SPOKE TO THE THRONG;
 GIVE UP YOUR PTOLOMY,
 RISE UP AND FOLLOW ME,
 HELIOCENTRICALLY
 PTOLEMY'S WRONG.
   -- NANCY L. STARK
 Job cpu time:  0 days  1 hours  8 minutes 45.0 seconds.
 File lengths (MBytes):  RWF=    753 Int=      0 D2E=      0 Chk=     11 Scr=      1
 Normal termination of Gaussian 03 at Tue Jan 04 12:16:36 2022.
