 Entering Link 1 = C:\G03W\l1.exe PID=      1816.
  
 Copyright (c) 1988,1990,1992,1993,1995,1998,2003,2004, Gaussian, Inc.
                  All Rights Reserved.
  
 This is the Gaussian(R) 03 program.  It is based on the
 the Gaussian(R) 98 system (copyright 1998, Gaussian, Inc.),
 the Gaussian(R) 94 system (copyright 1995, Gaussian, Inc.),
 the Gaussian 92(TM) system (copyright 1992, Gaussian, Inc.),
 the Gaussian 90(TM) system (copyright 1990, Gaussian, Inc.),
 the Gaussian 88(TM) system (copyright 1988, Gaussian, Inc.),
 the Gaussian 86(TM) system (copyright 1986, Carnegie Mellon
 University), and the Gaussian 82(TM) system (copyright 1983,
 Carnegie Mellon University). Gaussian is a federally registered
 trademark of Gaussian, Inc.
  
 This software contains proprietary and confidential information,
 including trade secrets, belonging to Gaussian, Inc.
  
 This software is provided under written license and may be
 used, copied, transmitted, or stored only in accord with that
 written license.
  
 The following legend is applicable only to US Government
 contracts under FAR:
  
                    RESTRICTED RIGHTS LEGEND
  
 Use, reproduction and disclosure by the US Government is
 subject to restrictions as set forth in subparagraphs (a)
 and (c) of the Commercial Computer Software - Restricted
 Rights clause in FAR 52.227-19.
  
 Gaussian, Inc.
 340 Quinnipiac St., Bldg. 40, Wallingford CT 06492
  
  
 ---------------------------------------------------------------
 Warning -- This program may not be used in any manner that
 competes with the business of Gaussian, Inc. or will provide
 assistance to any competitor of Gaussian, Inc.  The licensee
 of this program is prohibited from giving any competitor of
 Gaussian, Inc. access to this program.  By using this program,
 the user acknowledges that Gaussian, Inc. is engaged in the
 business of creating and licensing software in the field of
 computational chemistry and represents and warrants to the
 licensee that it is not a competitor of Gaussian, Inc. and that
 it will not use this program in any manner prohibited above.
 ---------------------------------------------------------------
  

 Cite this work as:
 Gaussian 03, Revision C.01,
 M. J. Frisch, G. W. Trucks, H. B. Schlegel, G. E. Scuseria, 
 M. A. Robb, J. R. Cheeseman, J. A. Montgomery, Jr., T. Vreven, 
 K. N. Kudin, J. C. Burant, J. M. Millam, S. S. Iyengar, J. Tomasi, 
 V. Barone, B. Mennucci, M. Cossi, G. Scalmani, N. Rega, 
 G. A. Petersson, H. Nakatsuji, M. Hada, M. Ehara, K. Toyota, 
 R. Fukuda, J. Hasegawa, M. Ishida, T. Nakajima, Y. Honda, O. Kitao, 
 H. Nakai, M. Klene, X. Li, J. E. Knox, H. P. Hratchian, J. B. Cross, 
 C. Adamo, J. Jaramillo, R. Gomperts, R. E. Stratmann, O. Yazyev, 
 A. J. Austin, R. Cammi, C. Pomelli, J. W. Ochterski, P. Y. Ayala, 
 K. Morokuma, G. A. Voth, P. Salvador, J. J. Dannenberg, 
 V. G. Zakrzewski, S. Dapprich, A. D. Daniels, M. C. Strain, 
 O. Farkas, D. K. Malick, A. D. Rabuck, K. Raghavachari, 
 J. B. Foresman, J. V. Ortiz, Q. Cui, A. G. Baboul, S. Clifford, 
 J. Cioslowski, B. B. Stefanov, G. Liu, A. Liashenko, P. Piskorz, 
 I. Komaromi, R. L. Martin, D. J. Fox, T. Keith, M. A. Al-Laham, 
 C. Y. Peng, A. Nanayakkara, M. Challacombe, P. M. W. Gill, 
 B. Johnson, W. Chen, M. W. Wong, C. Gonzalez, and J. A. Pople, 
 Gaussian, Inc., Wallingford CT, 2004.
 
 ******************************************
 Gaussian 03:  IA32W-G03RevC.01  3-Apr-2004
                03-Jan-2022 
 ******************************************
 %mem=512MB
 %chk=C:\Users\moaz\Documents\cefovecin\hf_cefovecin.chk
 Default route:  MaxDisk=2000MB
 -------------------------------------
 # opt freq hf/6-31g geom=connectivity
 -------------------------------------
 1/18=20,38=1,57=2/1,3;
 2/9=110,17=6,18=5,40=1/2;
 3/5=1,6=6,11=9,16=1,25=1,30=1/1,2,3;
 4//1;
 5/5=2,38=5/2;
 6/7=2,8=2,9=2,10=2,28=1/1;
 7//1,2,3,16;
 1/18=20/3(1);
 99//99;
 2/9=110/2;
 3/5=1,6=6,11=9,16=1,25=1,30=1/1,2,3;
 4/5=5,16=3/1;
 5/5=2,38=5/2;
 7//1,2,3,16;
 1/18=20/3(-5);
 2/9=110/2;
 6/7=2,8=2,9=2,10=2,19=2,28=1/1;
 99/9=1/99;
 ----------------------------------------------
 opt and frequency of cefovecin at hartree fock
 ----------------------------------------------
 Symbolic Z-matrix:
 Charge =  0 Multiplicity = 1
 S                     0.99666   0.36414  -1.75271 
 S                    -3.26195   2.95327  -2.28213 
 O                     5.53682   1.19158  -1.27383 
 O                    -0.06198  -1.16892   1.54702 
 O                     4.72071  -0.69614   1.82716 
 O                     3.07641  -2.32282   2.10683 
 O                    -2.75853  -2.60103   0.05418 
 O                    -4.87877  -2.03916   1.15489 
 N                     1.62354  -1.75368  -0.30701 
 N                    -1.62072  -1.06405  -1.33773 
 N                    -4.85277  -0.79854   0.59832 
 N                    -4.90245   1.97499  -0.56934 
 N                    -5.37541   4.3534   -0.95243 
 C                     0.89978  -1.37926  -1.55438 
 C                    -0.40193  -1.77577  -0.92672 
 C                     3.40213   0.03386  -0.64704 
 C                     4.72776   0.65644  -0.17089 
 C                     0.29837  -1.49398   0.38596 
 C                     2.85053  -0.99647   0.08621 
 C                     2.73352   0.59306  -1.91966 
 C                     4.54274   1.82746   0.78237 
 C                     5.97202   2.28873   0.78209 
 C                     6.12146   2.42272  -0.72596 
 C                     3.54446  -1.39024   1.40341 
 C                    -2.73465  -1.45318  -0.46101 
 C                    -3.87241  -0.45609  -0.17305 
 C                    -3.84305   0.94869  -0.80341 
 C                    -2.84564   1.38035  -1.61663 
 C                    -4.63239   3.10459  -1.17443 
 C                    -5.56607  -2.93906   0.28156 
 H                     1.18189  -1.80306  -2.4955 
 H                    -0.6381   -2.81571  -1.01411 
 H                     5.29844  -0.09259   0.33723 
 H                     3.08949   0.06562  -2.77989 
 H                     2.95871   1.63363  -2.02641 
 H                     4.15566   1.55239   1.74123 
 H                     3.89643   2.57753   0.3767 
 H                     6.1557    3.19481   1.32078 
 H                     6.6187    1.53734   1.1847 
 H                    -1.84236  -1.30133  -2.28354 
 H                     5.52481   3.25284  -1.04188 
 H                     7.13076   2.58166  -1.04369 
 H                     5.27607  -1.28977   2.33783 
 H                    -1.94092   0.84593  -1.81856 
 H                    -6.56787  -2.59461   0.13102 
 H                    -5.58654  -3.91515   0.71943 
 H                    -5.05809  -2.98078  -0.65925 
 H                    -6.32298   4.13975  -0.71483 
 H                    -5.3571    4.90492  -1.78639 
 

 GradGradGradGradGradGradGradGradGradGradGradGradGradGradGradGradGradGrad
 Berny optimization.
 Initialization pass.
                           ----------------------------
                           !    Initial Parameters    !
                           ! (Angstroms and Degrees)  !
 --------------------------                            --------------------------
 ! Name  Definition              Value          Derivative Info.                !
 --------------------------------------------------------------------------------
 ! R1    R(1,14)                 1.7573         estimate D2E/DX2                !
 ! R2    R(1,20)                 1.7598         estimate D2E/DX2                !
 ! R3    R(2,28)                 1.7579         estimate D2E/DX2                !
 ! R4    R(2,29)                 1.7686         estimate D2E/DX2                !
 ! R5    R(3,17)                 1.4688         estimate D2E/DX2                !
 ! R6    R(3,23)                 1.4689         estimate D2E/DX2                !
 ! R7    R(4,18)                 1.2584         estimate D2E/DX2                !
 ! R8    R(5,24)                 1.43           estimate D2E/DX2                !
 ! R9    R(5,33)                 1.7082         estimate D2E/DX2                !
 ! R10   R(5,43)                 0.96           estimate D2E/DX2                !
 ! R11   R(6,24)                 1.2584         estimate D2E/DX2                !
 ! R12   R(7,25)                 1.2584         estimate D2E/DX2                !
 ! R13   R(8,11)                 1.36           estimate D2E/DX2                !
 ! R14   R(8,30)                 1.43           estimate D2E/DX2                !
 ! R15   R(9,14)                 1.4899         estimate D2E/DX2                !
 ! R16   R(9,18)                 1.5178         estimate D2E/DX2                !
 ! R17   R(9,19)                 1.4945         estimate D2E/DX2                !
 ! R18   R(10,15)                1.47           estimate D2E/DX2                !
 ! R19   R(10,25)                1.47           estimate D2E/DX2                !
 ! R20   R(10,40)                1.0            estimate D2E/DX2                !
 ! R21   R(10,44)                1.9954         estimate D2E/DX2                !
 ! R22   R(11,26)                1.2936         estimate D2E/DX2                !
 ! R23   R(12,27)                1.4935         estimate D2E/DX2                !
 ! R24   R(12,29)                1.3096         estimate D2E/DX2                !
 ! R25   R(13,29)                1.47           estimate D2E/DX2                !
 ! R26   R(13,48)                1.0            estimate D2E/DX2                !
 ! R27   R(13,49)                1.0            estimate D2E/DX2                !
 ! R28   R(14,15)                1.4985         estimate D2E/DX2                !
 ! R29   R(14,31)                1.07           estimate D2E/DX2                !
 ! R30   R(15,18)                1.5143         estimate D2E/DX2                !
 ! R31   R(15,32)                1.07           estimate D2E/DX2                !
 ! R32   R(16,17)                1.54           estimate D2E/DX2                !
 ! R33   R(16,19)                1.3797         estimate D2E/DX2                !
 ! R34   R(16,20)                1.5425         estimate D2E/DX2                !
 ! R35   R(17,21)                1.5212         estimate D2E/DX2                !
 ! R36   R(17,33)                1.07           estimate D2E/DX2                !
 ! R37   R(19,24)                1.54           estimate D2E/DX2                !
 ! R38   R(20,34)                1.07           estimate D2E/DX2                !
 ! R39   R(20,35)                1.07           estimate D2E/DX2                !
 ! R40   R(21,22)                1.5019         estimate D2E/DX2                !
 ! R41   R(21,36)                1.07           estimate D2E/DX2                !
 ! R42   R(21,37)                1.07           estimate D2E/DX2                !
 ! R43   R(22,23)                1.5214         estimate D2E/DX2                !
 ! R44   R(22,38)                1.07           estimate D2E/DX2                !
 ! R45   R(22,39)                1.07           estimate D2E/DX2                !
 ! R46   R(23,41)                1.07           estimate D2E/DX2                !
 ! R47   R(23,42)                1.07           estimate D2E/DX2                !
 ! R48   R(25,26)                1.54           estimate D2E/DX2                !
 ! R49   R(26,27)                1.54           estimate D2E/DX2                !
 ! R50   R(27,28)                1.3574         estimate D2E/DX2                !
 ! R51   R(28,44)                1.07           estimate D2E/DX2                !
 ! R52   R(30,45)                1.07           estimate D2E/DX2                !
 ! R53   R(30,46)                1.07           estimate D2E/DX2                !
 ! R54   R(30,47)                1.07           estimate D2E/DX2                !
 ! A1    A(14,1,20)            101.1965         estimate D2E/DX2                !
 ! A2    A(28,2,29)             91.315          estimate D2E/DX2                !
 ! A3    A(17,3,23)            104.1539         estimate D2E/DX2                !
 ! A4    A(24,5,43)            109.4713         estimate D2E/DX2                !
 ! A5    A(11,8,30)            109.4704         estimate D2E/DX2                !
 ! A6    A(14,9,18)             85.1308         estimate D2E/DX2                !
 ! A7    A(14,9,19)            119.4569         estimate D2E/DX2                !
 ! A8    A(18,9,19)            120.6632         estimate D2E/DX2                !
 ! A9    A(15,10,25)           109.473          estimate D2E/DX2                !
 ! A10   A(15,10,40)           109.4712         estimate D2E/DX2                !
 ! A11   A(25,10,40)           109.4702         estimate D2E/DX2                !
 ! A12   A(8,11,26)            120.0002         estimate D2E/DX2                !
 ! A13   A(27,12,29)           111.9658         estimate D2E/DX2                !
 ! A14   A(29,13,48)           109.4712         estimate D2E/DX2                !
 ! A15   A(29,13,49)           109.4712         estimate D2E/DX2                !
 ! A16   A(48,13,49)           109.4713         estimate D2E/DX2                !
 ! A17   A(1,14,9)             108.4822         estimate D2E/DX2                !
 ! A18   A(1,14,15)            110.9567         estimate D2E/DX2                !
 ! A19   A(1,14,31)            106.2085         estimate D2E/DX2                !
 ! A20   A(9,14,15)             90.276          estimate D2E/DX2                !
 ! A21   A(9,14,31)            120.5803         estimate D2E/DX2                !
 ! A22   A(15,14,31)           119.513          estimate D2E/DX2                !
 ! A23   A(10,15,14)           118.3588         estimate D2E/DX2                !
 ! A24   A(10,15,18)           122.3927         estimate D2E/DX2                !
 ! A25   A(10,15,32)           105.3506         estimate D2E/DX2                !
 ! A26   A(14,15,18)            84.9585         estimate D2E/DX2                !
 ! A27   A(14,15,32)           114.4995         estimate D2E/DX2                !
 ! A28   A(18,15,32)           110.7161         estimate D2E/DX2                !
 ! A29   A(17,16,19)           118.799          estimate D2E/DX2                !
 ! A30   A(17,16,20)           118.7934         estimate D2E/DX2                !
 ! A31   A(19,16,20)           122.4055         estimate D2E/DX2                !
 ! A32   A(3,17,16)            112.9088         estimate D2E/DX2                !
 ! A33   A(3,17,21)            104.8966         estimate D2E/DX2                !
 ! A34   A(3,17,33)            108.5325         estimate D2E/DX2                !
 ! A35   A(16,17,21)           113.5939         estimate D2E/DX2                !
 ! A36   A(16,17,33)           108.8399         estimate D2E/DX2                !
 ! A37   A(21,17,33)           107.828          estimate D2E/DX2                !
 ! A38   A(4,18,9)             135.6807         estimate D2E/DX2                !
 ! A39   A(4,18,15)            135.6811         estimate D2E/DX2                !
 ! A40   A(9,18,15)             88.6335         estimate D2E/DX2                !
 ! A41   A(9,19,16)            124.5266         estimate D2E/DX2                !
 ! A42   A(9,19,24)            117.7392         estimate D2E/DX2                !
 ! A43   A(16,19,24)           117.7339         estimate D2E/DX2                !
 ! A44   A(1,20,16)            107.6003         estimate D2E/DX2                !
 ! A45   A(1,20,34)            109.9068         estimate D2E/DX2                !
 ! A46   A(1,20,35)            110.1015         estimate D2E/DX2                !
 ! A47   A(16,20,34)           109.9006         estimate D2E/DX2                !
 ! A48   A(16,20,35)           110.0987         estimate D2E/DX2                !
 ! A49   A(34,20,35)           109.2175         estimate D2E/DX2                !
 ! A50   A(17,21,22)            96.9247         estimate D2E/DX2                !
 ! A51   A(17,21,36)           114.0573         estimate D2E/DX2                !
 ! A52   A(17,21,37)           112.0556         estimate D2E/DX2                !
 ! A53   A(22,21,36)           115.0488         estimate D2E/DX2                !
 ! A54   A(22,21,37)           111.0667         estimate D2E/DX2                !
 ! A55   A(36,21,37)           107.5448         estimate D2E/DX2                !
 ! A56   A(21,22,23)            96.9333         estimate D2E/DX2                !
 ! A57   A(21,22,38)           115.0465         estimate D2E/DX2                !
 ! A58   A(21,22,39)           111.0641         estimate D2E/DX2                !
 ! A59   A(23,22,38)           114.0547         estimate D2E/DX2                !
 ! A60   A(23,22,39)           112.0531         estimate D2E/DX2                !
 ! A61   A(38,22,39)           107.5462         estimate D2E/DX2                !
 ! A62   A(3,23,22)            104.8805         estimate D2E/DX2                !
 ! A63   A(3,23,41)            108.5531         estimate D2E/DX2                !
 ! A64   A(3,23,42)            112.9036         estimate D2E/DX2                !
 ! A65   A(22,23,41)           107.8316         estimate D2E/DX2                !
 ! A66   A(22,23,42)           113.5832         estimate D2E/DX2                !
 ! A67   A(41,23,42)           108.8488         estimate D2E/DX2                !
 ! A68   A(5,24,6)             120.0            estimate D2E/DX2                !
 ! A69   A(5,24,19)            119.9999         estimate D2E/DX2                !
 ! A70   A(6,24,19)            120.0001         estimate D2E/DX2                !
 ! A71   A(7,25,10)            120.0007         estimate D2E/DX2                !
 ! A72   A(7,25,26)            120.0006         estimate D2E/DX2                !
 ! A73   A(10,25,26)           119.9987         estimate D2E/DX2                !
 ! A74   A(11,26,25)           120.0007         estimate D2E/DX2                !
 ! A75   A(11,26,27)           120.0003         estimate D2E/DX2                !
 ! A76   A(25,26,27)           119.999          estimate D2E/DX2                !
 ! A77   A(12,27,26)           123.3112         estimate D2E/DX2                !
 ! A78   A(12,27,28)           113.3658         estimate D2E/DX2                !
 ! A79   A(26,27,28)           123.3204         estimate D2E/DX2                !
 ! A80   A(2,28,27)            109.7147         estimate D2E/DX2                !
 ! A81   A(2,28,44)            125.1476         estimate D2E/DX2                !
 ! A82   A(27,28,44)           125.1372         estimate D2E/DX2                !
 ! A83   A(2,29,12)            112.0472         estimate D2E/DX2                !
 ! A84   A(2,29,13)            123.9818         estimate D2E/DX2                !
 ! A85   A(12,29,13)           123.9699         estimate D2E/DX2                !
 ! A86   A(8,30,45)            109.4712         estimate D2E/DX2                !
 ! A87   A(8,30,46)            109.4713         estimate D2E/DX2                !
 ! A88   A(8,30,47)            109.4712         estimate D2E/DX2                !
 ! A89   A(45,30,46)           109.4712         estimate D2E/DX2                !
 ! A90   A(45,30,47)           109.4712         estimate D2E/DX2                !
 ! A91   A(46,30,47)           109.4712         estimate D2E/DX2                !
 ! D1    D(20,1,14,9)           62.5507         estimate D2E/DX2                !
 ! D2    D(20,1,14,15)         160.22           estimate D2E/DX2                !
 ! D3    D(20,1,14,31)         -68.428          estimate D2E/DX2                !
 ! D4    D(14,1,20,16)         -58.5701         estimate D2E/DX2                !
 ! D5    D(14,1,20,34)          61.0782         estimate D2E/DX2                !
 ! D6    D(14,1,20,35)        -178.5698         estimate D2E/DX2                !
 ! D7    D(29,2,28,27)          10.5799         estimate D2E/DX2                !
 ! D8    D(29,2,28,44)        -169.1692         estimate D2E/DX2                !
 ! D9    D(28,2,29,12)         -11.9724         estimate D2E/DX2                !
 ! D10   D(28,2,29,13)         167.6557         estimate D2E/DX2                !
 ! D11   D(23,3,17,16)         141.7666         estimate D2E/DX2                !
 ! D12   D(23,3,17,21)          17.5687         estimate D2E/DX2                !
 ! D13   D(23,3,17,33)         -97.4751         estimate D2E/DX2                !
 ! D14   D(17,3,23,22)          17.5859         estimate D2E/DX2                !
 ! D15   D(17,3,23,41)         -97.4634         estimate D2E/DX2                !
 ! D16   D(17,3,23,42)         141.7563         estimate D2E/DX2                !
 ! D17   D(43,5,24,6)           30.0003         estimate D2E/DX2                !
 ! D18   D(43,5,24,19)        -149.9995         estimate D2E/DX2                !
 ! D19   D(30,8,11,26)         -90.0004         estimate D2E/DX2                !
 ! D20   D(11,8,30,45)         -59.9997         estimate D2E/DX2                !
 ! D21   D(11,8,30,46)        -179.9997         estimate D2E/DX2                !
 ! D22   D(11,8,30,47)          60.0003         estimate D2E/DX2                !
 ! D23   D(18,9,14,1)           87.3814         estimate D2E/DX2                !
 ! D24   D(18,9,14,15)         -24.8735         estimate D2E/DX2                !
 ! D25   D(18,9,14,31)        -149.9772         estimate D2E/DX2                !
 ! D26   D(19,9,14,1)          -35.283          estimate D2E/DX2                !
 ! D27   D(19,9,14,15)        -147.5378         estimate D2E/DX2                !
 ! D28   D(19,9,14,31)          87.3585         estimate D2E/DX2                !
 ! D29   D(14,9,18,4)         -154.6572         estimate D2E/DX2                !
 ! D30   D(14,9,18,15)          24.6052         estimate D2E/DX2                !
 ! D31   D(19,9,18,4)          -33.1055         estimate D2E/DX2                !
 ! D32   D(19,9,18,15)         146.1569         estimate D2E/DX2                !
 ! D33   D(14,9,19,16)          -1.4879         estimate D2E/DX2                !
 ! D34   D(14,9,19,24)         178.2913         estimate D2E/DX2                !
 ! D35   D(18,9,19,16)        -104.2863         estimate D2E/DX2                !
 ! D36   D(18,9,19,24)          75.4928         estimate D2E/DX2                !
 ! D37   D(25,10,15,14)       -171.1361         estimate D2E/DX2                !
 ! D38   D(25,10,15,18)        -68.181          estimate D2E/DX2                !
 ! D39   D(25,10,15,32)         59.3066         estimate D2E/DX2                !
 ! D40   D(40,10,15,14)         68.8641         estimate D2E/DX2                !
 ! D41   D(40,10,15,18)        171.8192         estimate D2E/DX2                !
 ! D42   D(40,10,15,32)        -60.6932         estimate D2E/DX2                !
 ! D43   D(15,10,25,7)         -30.0063         estimate D2E/DX2                !
 ! D44   D(15,10,25,26)        149.994          estimate D2E/DX2                !
 ! D45   D(40,10,25,7)          89.9942         estimate D2E/DX2                !
 ! D46   D(40,10,25,26)        -90.0056         estimate D2E/DX2                !
 ! D47   D(8,11,26,25)          -0.007          estimate D2E/DX2                !
 ! D48   D(8,11,26,27)         179.9932         estimate D2E/DX2                !
 ! D49   D(29,12,27,26)        177.7571         estimate D2E/DX2                !
 ! D50   D(29,12,27,28)         -1.6745         estimate D2E/DX2                !
 ! D51   D(27,12,29,2)           9.8104         estimate D2E/DX2                !
 ! D52   D(27,12,29,13)       -169.8177         estimate D2E/DX2                !
 ! D53   D(48,13,29,2)         150.2078         estimate D2E/DX2                !
 ! D54   D(48,13,29,12)        -30.2079         estimate D2E/DX2                !
 ! D55   D(49,13,29,2)          30.2078         estimate D2E/DX2                !
 ! D56   D(49,13,29,12)       -150.2079         estimate D2E/DX2                !
 ! D57   D(1,14,15,10)          39.2856         estimate D2E/DX2                !
 ! D58   D(1,14,15,18)         -85.0143         estimate D2E/DX2                !
 ! D59   D(1,14,15,32)         164.4956         estimate D2E/DX2                !
 ! D60   D(9,14,15,10)         149.2426         estimate D2E/DX2                !
 ! D61   D(9,14,15,18)          24.9426         estimate D2E/DX2                !
 ! D62   D(9,14,15,32)         -85.5475         estimate D2E/DX2                !
 ! D63   D(31,14,15,10)        -84.7893         estimate D2E/DX2                !
 ! D64   D(31,14,15,18)        150.9107         estimate D2E/DX2                !
 ! D65   D(31,14,15,32)         40.4206         estimate D2E/DX2                !
 ! D66   D(10,15,18,4)          34.2208         estimate D2E/DX2                !
 ! D67   D(10,15,18,9)        -145.0415         estimate D2E/DX2                !
 ! D68   D(14,15,18,4)         154.8006         estimate D2E/DX2                !
 ! D69   D(14,15,18,9)         -24.4617         estimate D2E/DX2                !
 ! D70   D(32,15,18,4)         -90.8872         estimate D2E/DX2                !
 ! D71   D(32,15,18,9)          89.8505         estimate D2E/DX2                !
 ! D72   D(19,16,17,3)         150.6894         estimate D2E/DX2                !
 ! D73   D(19,16,17,21)        -90.0277         estimate D2E/DX2                !
 ! D74   D(19,16,17,33)         30.1065         estimate D2E/DX2                !
 ! D75   D(20,16,17,3)         -29.8231         estimate D2E/DX2                !
 ! D76   D(20,16,17,21)         89.4598         estimate D2E/DX2                !
 ! D77   D(20,16,17,33)       -150.406          estimate D2E/DX2                !
 ! D78   D(17,16,19,9)        -175.6258         estimate D2E/DX2                !
 ! D79   D(17,16,19,24)          4.595          estimate D2E/DX2                !
 ! D80   D(20,16,19,9)           4.9062         estimate D2E/DX2                !
 ! D81   D(20,16,19,24)       -174.873          estimate D2E/DX2                !
 ! D82   D(17,16,20,1)        -150.5193         estimate D2E/DX2                !
 ! D83   D(17,16,20,34)         89.8285         estimate D2E/DX2                !
 ! D84   D(17,16,20,35)        -30.5178         estimate D2E/DX2                !
 ! D85   D(19,16,20,1)          28.9488         estimate D2E/DX2                !
 ! D86   D(19,16,20,34)        -90.7035         estimate D2E/DX2                !
 ! D87   D(19,16,20,35)        148.9503         estimate D2E/DX2                !
 ! D88   D(3,17,21,22)         -45.9319         estimate D2E/DX2                !
 ! D89   D(3,17,21,36)        -167.3508         estimate D2E/DX2                !
 ! D90   D(3,17,21,37)          70.1651         estimate D2E/DX2                !
 ! D91   D(16,17,21,22)       -169.6931         estimate D2E/DX2                !
 ! D92   D(16,17,21,36)         68.888          estimate D2E/DX2                !
 ! D93   D(16,17,21,37)        -53.5961         estimate D2E/DX2                !
 ! D94   D(33,17,21,22)         69.6016         estimate D2E/DX2                !
 ! D95   D(33,17,21,36)        -51.8173         estimate D2E/DX2                !
 ! D96   D(33,17,21,37)       -174.3014         estimate D2E/DX2                !
 ! D97   D(9,19,24,5)         -179.8979         estimate D2E/DX2                !
 ! D98   D(9,19,24,6)            0.1023         estimate D2E/DX2                !
 ! D99   D(16,19,24,5)          -0.1034         estimate D2E/DX2                !
 ! D100  D(16,19,24,6)         179.8968         estimate D2E/DX2                !
 ! D101  D(17,21,22,23)         53.9551         estimate D2E/DX2                !
 ! D102  D(17,21,22,38)        174.6227         estimate D2E/DX2                !
 ! D103  D(17,21,22,39)        -62.9267         estimate D2E/DX2                !
 ! D104  D(36,21,22,23)        174.6213         estimate D2E/DX2                !
 ! D105  D(36,21,22,38)        -64.7111         estimate D2E/DX2                !
 ! D106  D(36,21,22,39)         57.7396         estimate D2E/DX2                !
 ! D107  D(37,21,22,23)        -62.9261         estimate D2E/DX2                !
 ! D108  D(37,21,22,38)         57.7415         estimate D2E/DX2                !
 ! D109  D(37,21,22,39)       -179.8078         estimate D2E/DX2                !
 ! D110  D(21,22,23,3)         -45.9439         estimate D2E/DX2                !
 ! D111  D(21,22,23,41)         69.6069         estimate D2E/DX2                !
 ! D112  D(21,22,23,42)       -169.6808         estimate D2E/DX2                !
 ! D113  D(38,22,23,3)        -167.3642         estimate D2E/DX2                !
 ! D114  D(38,22,23,41)        -51.8134         estimate D2E/DX2                !
 ! D115  D(38,22,23,42)         68.8989         estimate D2E/DX2                !
 ! D116  D(39,22,23,3)          70.1537         estimate D2E/DX2                !
 ! D117  D(39,22,23,41)       -174.2955         estimate D2E/DX2                !
 ! D118  D(39,22,23,42)        -53.5832         estimate D2E/DX2                !
 ! D119  D(7,25,26,11)          -0.0079         estimate D2E/DX2                !
 ! D120  D(7,25,26,27)         179.9918         estimate D2E/DX2                !
 ! D121  D(10,25,26,11)        179.9918         estimate D2E/DX2                !
 ! D122  D(10,25,26,27)         -0.0085         estimate D2E/DX2                !
 ! D123  D(11,26,27,12)          0.3113         estimate D2E/DX2                !
 ! D124  D(11,26,27,28)        179.6869         estimate D2E/DX2                !
 ! D125  D(25,26,27,12)       -179.6884         estimate D2E/DX2                !
 ! D126  D(25,26,27,28)         -0.3129         estimate D2E/DX2                !
 ! D127  D(12,27,28,2)          -7.2226         estimate D2E/DX2                !
 ! D128  D(12,27,28,44)        172.5265         estimate D2E/DX2                !
 ! D129  D(26,27,28,2)         173.3458         estimate D2E/DX2                !
 ! D130  D(26,27,28,44)         -6.905          estimate D2E/DX2                !
 --------------------------------------------------------------------------------
 Trust Radius=3.00D-01 FncErr=1.00D-07 GrdErr=1.00D-07
 Number of steps in this run= 285 maximum allowed number of steps= 294.
 GradGradGradGradGradGradGradGradGradGradGradGradGradGradGradGradGradGrad

                          Input orientation:                          
 ---------------------------------------------------------------------
 Center     Atomic     Atomic              Coordinates (Angstroms)
 Number     Number      Type              X           Y           Z
 ---------------------------------------------------------------------
    1         16             0        0.996665    0.364139   -1.752709
    2         16             0       -3.261949    2.953270   -2.282131
    3          8             0        5.536822    1.191579   -1.273828
    4          8             0       -0.061981   -1.168921    1.547018
    5          8             0        4.720707   -0.696142    1.827165
    6          8             0        3.076414   -2.322817    2.106829
    7          8             0       -2.758531   -2.601033    0.054183
    8          8             0       -4.878770   -2.039164    1.154886
    9          7             0        1.623539   -1.753681   -0.307008
   10          7             0       -1.620716   -1.064049   -1.337728
   11          7             0       -4.852774   -0.798537    0.598322
   12          7             0       -4.902448    1.974988   -0.569344
   13          7             0       -5.375408    4.353402   -0.952426
   14          6             0        0.899777   -1.379263   -1.554375
   15          6             0       -0.401931   -1.775766   -0.926723
   16          6             0        3.402135    0.033862   -0.647038
   17          6             0        4.727758    0.656442   -0.170887
   18          6             0        0.298372   -1.493981    0.385961
   19          6             0        2.850526   -0.996473    0.086211
   20          6             0        2.733522    0.593061   -1.919663
   21          6             0        4.542741    1.827455    0.782367
   22          6             0        5.972021    2.288735    0.782089
   23          6             0        6.121461    2.422720   -0.725965
   24          6             0        3.544462   -1.390242    1.403405
   25          6             0       -2.734652   -1.453177   -0.461014
   26          6             0       -3.872411   -0.456090   -0.173053
   27          6             0       -3.843054    0.948685   -0.803407
   28          6             0       -2.845644    1.380345   -1.616628
   29          6             0       -4.632389    3.104587   -1.174429
   30          6             0       -5.566072   -2.939063    0.281557
   31          1             0        1.181887   -1.803062   -2.495496
   32          1             0       -0.638104   -2.815711   -1.014110
   33          1             0        5.298439   -0.092587    0.337225
   34          1             0        3.089491    0.065625   -2.779894
   35          1             0        2.958714    1.633634   -2.026408
   36          1             0        4.155664    1.552389    1.741226
   37          1             0        3.896434    2.577534    0.376697
   38          1             0        6.155698    3.194812    1.320780
   39          1             0        6.618705    1.537336    1.184703
   40          1             0       -1.842364   -1.301332   -2.283544
   41          1             0        5.524811    3.252845   -1.041881
   42          1             0        7.130763    2.581661   -1.043688
   43          1             0        5.276068   -1.289772    2.337829
   44          1             0       -1.940924    0.845927   -1.818562
   45          1             0       -6.567865   -2.594610    0.131016
   46          1             0       -5.586537   -3.915150    0.719432
   47          1             0       -5.058089   -2.980779   -0.659247
   48          1             0       -6.322983    4.139748   -0.714827
   49          1             0       -5.357096    4.904922   -1.786387
 ---------------------------------------------------------------------
                    Distance matrix (angstroms):
                    1          2          3          4          5
     1  S    0.000000
     2  S    5.011953   0.000000
     3  O    4.639721   9.029873   0.000000
     4  O    3.789353   6.472606   6.698935   0.000000
     5  O    5.273346   9.691611   3.720980   4.814158   0.000000
     6  O    5.142093   9.342104   5.462000   3.390338   2.329804
     7  O    5.114548   6.046658   9.217397   3.398659   7.919033
     8  O    6.982170   6.273085  11.172328   4.910452   9.716256
     9  N    2.639732   7.065726   4.992303   2.573001   3.907113
    10  N    3.010417   4.441216   7.504818   3.280611   7.096869
    11  N    6.410546   4.990370  10.742868   4.897847   9.652569
    12  N    6.228541   2.565524  10.492302   6.147623  10.270507
    13  N    7.560289   2.862725  11.365614   8.060755  11.625643
    14  C    1.757320   6.051481   5.309438   3.253899   5.147910
    15  C    2.686544   5.690396   6.647888   2.569673   5.915311
    16  C    2.667935   7.456975   2.508000   4.273250   2.897105
    17  C    4.063085   8.577190   1.468822   5.405992   2.412829
    18  C    2.917899   6.290679   6.116249   1.258400   4.719181
    19  C    2.944434   7.653226   3.722024   3.262882   2.572682
    20  C    1.759816   6.453498   2.938336   4.789289   4.432794
    21  C    4.598104   8.460011   2.370754   5.546749   2.737119
    22  C    5.906220   9.751782   2.370642   6.996405   3.401097
    23  C    5.617429   9.526360   1.468900   7.503419   4.267070
    24  C    4.419296   8.875613   4.219346   3.616081   1.430000
    25  C    4.346704   4.797007   8.721965   3.355020   7.835256
    26  C    5.184206   4.055195   9.615622   4.241008   8.826108
    27  C    4.966462   2.557864   9.394806   4.930037   9.108423
    28  C    3.976749   1.757924   8.391596   4.925057   8.568616
    29  C    6.287345   1.768617  10.348059   6.823325  10.532593
    30  C    7.623575   6.826498  11.948041   5.918598  10.641307
    31  H    2.298435   6.512749   5.424556   4.276829   5.695078
    32  H    3.650951   6.463249   7.365836   3.098905   6.425128
    33  H    4.804340   9.456136   2.073983   5.599661   1.708207
    34  H    2.350349   6.994787   3.086331   5.493455   4.946327
    35  H    2.352906   6.364234   2.721843   5.454199   4.835546
    36  H    4.857859   8.553996   3.335916   5.023124   2.320033
    37  H    4.223997   7.645455   2.708501   5.574462   3.674268
    38  H    6.638875  10.086198   3.335856   7.599532   4.177936
    39  H    6.450745  10.566510   2.708209   7.217109   3.000596
    40  H    3.334017   4.485182   7.854077   4.226168   7.767760
    41  H    5.417934   8.878914   2.074309   7.580677   4.946969
    42  H    6.561043  10.472836   2.127426   8.515527   4.979373
    43  H    6.146642  10.594582   4.389665   5.397663   0.960000
    44  H    2.977563   2.529999   7.505524   4.349387   7.748976
    45  H    8.338149   6.894297  12.760575   6.809124  11.572077
    46  H    8.231788   7.847821  12.400842   6.224740  10.854878
    47  H    7.003154   6.408806  11.403439   5.754262  10.345369
    48  H    8.301185   3.637871  12.233526   8.514579  12.321147
    49  H    7.809617   2.905917  11.520811   8.720172  12.082707
                    6          7          8          9         10
     6  O    0.000000
     7  O    6.191716   0.000000
     8  O    8.016957   2.454110   0.000000
     9  N    2.874261   4.477834   6.670731   0.000000
    10  N    5.959236   2.365240   4.216502   3.473206   0.000000
    11  N    8.214076   2.816191   1.359999   6.608673   3.776902
    12  N    9.449618   5.091673   4.368862   7.520658   4.538274
    13  N   11.196617   7.498364   6.749246   9.311191   6.602647
    14  C    4.362621   4.178923   6.416164   1.489948   2.549348
    15  C    4.647643   2.682686   4.944144   2.118269   1.470000
    16  C    3.639205   6.737076   8.724548   2.544471   5.187628
    17  C    4.097672   8.167394  10.065254   3.932353   6.680174
    18  C    3.371331   3.268072   5.262249   1.517800   2.615118
    19  C    2.427573   5.834138   7.872185   1.494485   4.692992
    20  C    4.983228   6.652890   8.621394   3.056127   4.695109
    21  C    4.596637   8.570317  10.190896   4.746895   7.130483
    22  C    5.604096  10.033056  11.688000   6.036270   8.566471
    23  C    6.310085  10.232351  12.018781   6.152167   8.513115
    24  C    1.258400   6.558516   8.451845   2.597604   5.856558
    25  C    6.412377   1.258400   2.748046   4.371252   1.470000
    26  C    7.547762   2.427580   2.298327   5.648642   2.606955
    27  C    8.188482   3.809481   3.719525   6.118238   3.045552
    28  C    7.915069   4.318630   4.848498   5.613450   2.748327
    29  C    9.982435   6.129839   5.651955   7.968175   5.145325
    30  C    8.854600   2.836943   1.430002   7.310406   4.658712
    31  H    5.004076   4.760726   7.079025   2.233154   3.121081
    32  H    4.876561   2.384020   4.826056   2.596715   2.034349
    33  H    3.611484   8.443174  10.393907   4.084013   7.184978
    34  H    5.439200   7.024416   9.132678   3.402066   5.053914
    35  H    5.722850   7.412702   9.221509   4.026529   5.359380
    36  H    4.039266   8.240336   9.739817   4.640800   7.049275
    37  H    5.261106   8.438610   9.946039   4.938920   6.829299
    38  H    6.367425  10.707921  12.213988   6.904907   9.256250
    39  H    5.319673  10.311970  12.040937   6.165037   9.000995
    40  H    6.671821   2.827287   4.646176   4.015445   1.000000
    41  H    6.855438  10.202108  11.877106   6.389465   8.353541
    42  H    7.100522  11.218903  13.054296   7.047511   9.485043
    43  H    2.441111   8.455131  10.250935   4.533359   7.818331
    44  H    7.115006   4.007142   5.078985   4.663491   1.995431
    45  H    9.848341   3.810114   2.051798   8.246097   5.382761
    46  H    8.916676   3.188586   2.051799   7.596757   5.299851
    47  H    8.617089   2.437448   2.051798   6.802499   3.993710
    48  H   11.750539   7.663865   6.615175   9.901820   7.041224
    49  H   11.769514   8.153502   7.556469   9.759858   7.056235
                   11         12         13         14         15
    11  N    0.000000
    12  N    3.009710   0.000000
    13  N    5.405593   2.455055   0.000000
    14  C    6.169537   6.774002   8.520782   0.000000
    15  C    4.805283   5.869457   7.893214   1.498535   0.000000
    16  C    8.389716   8.528781   9.787591   3.013632   4.221836
    17  C    9.720866   9.728217  10.786671   4.550997   5.727184
    18  C    5.202216   6.324151   8.256812   2.034639   1.514254
    19  C    7.722841   8.328742   9.867417   2.577494   3.494541
    20  C    8.113488   7.876619   8.990576   2.717741   4.053188
    21  C    9.757326   9.542562  10.380731   5.386520   6.352477
    22  C   11.257940  10.962613  11.663427   6.681387   7.750321
    23  C   11.513648  11.034110  11.660052   6.512091   7.760299
    24  C    8.456468   9.304128  10.867542   3.967738   4.599146
    25  C    2.457069   4.057511   6.397768   3.796047   2.400528
    26  C    1.293600   2.669862   5.098787   5.053126   3.788640
    27  C    2.457064   1.493452   3.736631   5.336454   4.390805
    28  C    3.698932   2.383453   3.959789   4.652686   4.050770
    29  C    4.292504   1.309600   1.470000   7.131208   6.463434
    30  C    2.278374   5.031136   7.398589   6.900060   5.429691
    31  H    6.855503   7.416391   9.125855   1.070000   2.229411
    32  H    4.942912   6.429094   8.593139   2.172636   1.070000
    33  H   10.179080  10.447719  11.634476   4.958015   6.076584
    34  H    8.674024   8.509012   9.663290   2.895590   4.360618
    35  H    8.592090   8.002339   8.832223   3.679618   4.911950
    36  H    9.380035   9.357709  10.292850   5.482370   6.242295
    37  H    9.380598   8.870084   9.533484   5.325903   6.255083
    38  H   11.732657  11.284642  11.810004   7.537466   8.529972
    39  H   11.721561  11.662126  12.504251   6.979630   8.045129
    40  H    4.197680   4.799674   6.799285   2.838503   2.034920
    41  H   11.260473  10.515890  10.956003   6.565822   7.773446
    42  H   12.558945  12.057829  12.631378   7.401008   8.703007
    43  H   10.288861  11.077568  12.495004   5.857405   6.567584
    44  H    4.126071   3.406751   4.984802   3.618127   3.168146
    45  H    2.527012   4.913791   7.132368   7.751341   6.309363
    46  H    3.204115   6.068167   8.438521   7.326199   5.845248
    47  H    2.527017   4.959025   7.346894   6.233961   4.816991
    48  H    5.317192   2.593313   1.000000   9.128668   8.372399
    49  H    6.202469   3.205060   1.000000   8.870923   8.362074
                   16         17         18         19         20
    16  C    0.000000
    17  C    1.540000   0.000000
    18  C    3.610365   4.955185   0.000000
    19  C    1.379679   2.514403   2.617415   0.000000
    20  C    1.542505   2.653151   3.949886   2.561999   0.000000
    21  C    2.561475   1.521249   5.404049   3.364935   3.478214
    22  C    3.705559   2.262904   6.830531   4.584819   4.545619
    23  C    3.620444   2.317383   7.105301   4.800992   4.031216
    24  C    2.500529   2.840335   3.403388   1.540000   3.953972
    25  C    6.317122   7.760297   3.149327   5.630475   6.017945
    26  C    7.306418   8.671830   4.334184   6.749602   6.913011
    27  C    7.304390   8.599088   4.953042   7.027025   6.680109
    28  C    6.464354   7.744070   4.707117   6.402756   5.642583
    29  C    8.617486   9.726914   6.920553   8.625655   7.817914
    30  C    9.493645  10.913079   6.040767   8.640078   9.284639
    31  H    3.423535   4.901650   3.029675   3.178075   2.912140
    32  H    4.957654   6.446653   2.141064   4.085447   4.879304
    33  H    2.140265   1.070000   5.192971   2.621506   3.484603
    34  H    2.155883   3.136862   4.499484   3.065895   1.070000
    35  H    2.158369   2.743607   4.762240   3.375252   1.070000
    36  H    2.928743   2.187736   5.098610   3.307439   4.042884
    37  H    2.786150   2.163688   5.433542   3.735215   3.250195
    38  H    4.630985   3.272217   7.560882   5.478611   5.383388
    39  H    3.995251   2.487826   7.055032   4.671835   5.061955
    40  H    5.653819   7.173751   3.427262   5.266109   4.965870
    41  H    3.876017   2.852233   7.203246   5.145978   3.954270
    42  H    4.533352   3.200420   8.083089   5.692112   4.904854
    43  H    3.764713   3.222118   5.350603   3.322508   5.304322
    44  H    5.529936   6.871830   3.917849   5.475454   4.682371
    45  H   10.339977  11.758043   6.958562   9.553122  10.044019
    46  H    9.912525  11.317102   6.372238   8.950066   9.824061
    47  H    8.981291  10.451347   5.656386   8.187758   8.664304
    48  H   10.556553  11.599490   8.763161  10.543989   9.800557
    49  H   10.087095  11.061813   8.811889  10.280961   9.168861
                   21         22         23         24         25
    21  C    0.000000
    22  C    1.501873   0.000000
    23  C    2.263132   1.521351   0.000000
    24  C    3.425759   4.451287   5.070881   0.000000
    25  C    8.078922   9.557895   9.670756   6.550365   0.000000
    26  C    8.771670  10.264463  10.414929   7.639887   1.540000
    27  C    8.579538  10.032210  10.073249   8.057046   2.667345
    28  C    7.780959   9.183150   9.071318   7.591457   3.062125
    29  C    9.468005  10.814208  10.784775   9.680372   4.988344
    30  C   11.187430  12.677066  12.898149   9.309093   3.282714
    31  H    5.934676   7.101461   6.737053   4.577511   4.427280
    32  H    7.185226   8.542567   8.556630   5.036883   2.560845
    33  H    2.110875   2.514421   2.852107   2.428391   8.186509
    34  H    4.231511   5.093027   4.355155   4.452700   6.450162
    35  H    3.230469   4.170951   3.509528   4.609832   6.662827
    36  H    1.070000   2.182041   3.272440   3.024363   7.833246
    37  H    1.070000   2.134434   2.488087   4.113547   7.805106
    38  H    2.182014   1.070000   2.187798   5.277130  10.189058
    39  H    2.134402   1.070000   2.163749   4.250825   9.956748
    40  H    7.743299   9.129694   8.928446   6.528353   2.034908
    41  H    2.514772   2.111011   1.070000   5.608874   9.523800
    42  H    3.255943   2.182189   1.070000   5.884373  10.674541
    43  H    3.560103   3.963634   4.887138   1.970204   8.487158
    44  H    7.054511   8.453388   8.287466   6.743217   2.785466
    45  H   11.975996  13.472925  13.672126  10.262974   4.043129
    46  H   11.644043  13.118399  13.391602   9.498322   3.948166
    47  H   10.833896  12.308881  12.417109   8.988227   2.787692
    48  H   11.209471  12.523344  12.562345  11.508005   6.649914
    49  H   10.680640  11.907578  11.791654  11.359648   7.004231
                   26         27         28         29         30
    26  C    0.000000
    27  C    1.540000   0.000000
    28  C    2.551598   1.357382   0.000000
    29  C    3.776074   2.325644   2.522103   0.000000
    30  C    3.039788   4.388681   5.446203   6.286284   0.000000
    31  H    5.723112   5.973719   5.208407   7.722438   7.384949
    32  H    4.090958   4.948412   4.779451   7.143525   5.096944
    33  H    9.192226   9.271040   8.503715  10.541744  11.231345
    34  H    7.452240   7.262677   6.189306   8.452232   9.660196
    35  H    7.380118   6.944706   5.824315   7.779101   9.945262
    36  H    8.494025   8.415409   7.766795   9.388304  10.808142
    37  H    8.358233   7.996591   7.131776   8.684734  10.953580
    38  H   10.776066  10.465768   9.640790  11.073258  13.270430
    39  H   10.764793  10.665247   9.871475  11.602108  13.012402
    40  H    3.047900   3.355018   2.939854   5.331650   4.809148
    41  H   10.139963   9.650022   8.596576  10.159147  12.771018
    42  H   11.447960  11.097253  10.064797  11.775496  13.908425
    43  H    9.523352   9.901336   9.419632  11.394028  11.157975
    44  H    2.851946   2.158518   1.070000   3.572176   5.646092
    45  H    3.454156   4.566473   5.719218   6.158823   1.070000
    46  H    3.962304   5.386619   6.404057   7.333063   1.070000
    47  H    2.831302   4.115553   4.983060   6.121953   1.070000
    48  H    5.236464   4.042373   4.529838   2.034921   7.188552
    49  H    5.792028   4.348607   4.331149   2.034920   8.114689
                   31         32         33         34         35
    31  H    0.000000
    32  H    2.555842   0.000000
    33  H    5.281670   6.669636   0.000000
    34  H    2.685484   5.031406   3.823731   0.000000
    35  H    3.897183   5.810208   3.747121   1.744562   0.000000
    36  H    6.168648   7.046445   2.446038   4.877266   3.954031
    37  H    5.899821   7.182164   3.016078   4.113990   2.746849
    38  H    8.017575   9.366635   3.536844   6.000747   4.884839
    39  H    7.366215   8.743287   2.262293   5.508114   4.869912
    40  H    3.072906   2.314098   7.701985   5.141802   5.632983
    41  H    6.821744   8.649258   3.625616   4.371481   3.189983
    42  H    7.531446   9.459799   3.523626   5.067222   4.389817
    43  H    6.355062   6.967167   2.331559   5.727941   5.741341
    44  H    4.150582   3.968889   7.611609   5.180550   4.966903
    45  H    8.220935   6.043366  12.128966  10.431431  10.643694
    46  H    7.785130   5.357325  11.542997  10.166873  10.552249
    47  H    6.610304   4.437279  10.797790   8.953254   9.350458
    48  H    9.737087   8.988095  12.412773  10.462201   9.703131
    49  H    9.394583   9.081491  11.959317   9.785228   8.939331
                   36         37         38         39         40
    36  H    0.000000
    37  H    1.726286   0.000000
    38  H    2.621920   2.525193   0.000000
    39  H    2.525176   3.024177   1.726302   0.000000
    40  H    7.766521   7.419993   9.857762   9.574783   0.000000
    41  H    3.537202   2.262746   2.446130   3.016165   8.749716
    42  H    4.203137   3.532477   2.630097   2.513672   9.855552
    43  H    3.112735   4.550328   4.681840   3.335403   8.487008
    44  H    7.095038   6.472431   8.996000   9.097521   2.199237
    45  H   11.609671  11.675315  14.029327  13.858891   5.461961
    46  H   11.218223  11.497789  13.740206  13.375874   5.465230
    47  H   10.545384  10.590161  12.954051  12.655474   3.974892
    48  H   11.069267  10.395596  12.678884  13.336718   7.220954
    49  H   10.685324   9.783838  12.046718  12.790146   7.149692
                   41         42         43         44         45
    41  H    0.000000
    42  H    1.740567   0.000000
    43  H    5.667422   5.464663   0.000000
    44  H    7.882492   9.268695   8.597777   0.000000
    45  H   13.483369  14.691022  12.118225   6.086603   0.000000
    46  H   13.339582  14.389124  11.291945   6.511511   1.747302
    47  H   12.288297  13.403606  10.892051   5.069951   1.747302
    48  H   11.885445  13.547660  13.165728   5.591953   6.791686
    49  H   11.031753  12.723827  12.978736   5.305348   7.834882
                   46         47         48         49
    46  H    0.000000
    47  H    1.747303   0.000000
    48  H    8.214673   7.232216   0.000000
    49  H    9.171993   7.971457   1.632994   0.000000
 Stoichiometry    C17H19N5O6S2
 Framework group  C1[X(C17H19N5O6S2)]
 Deg. of freedom   141
 Full point group                 C1      NOp   1
 Largest Abelian subgroup         C1      NOp   1
 Largest concise Abelian subgroup C1      NOp   1
                         Standard orientation:                         
 ---------------------------------------------------------------------
 Center     Atomic     Atomic              Coordinates (Angstroms)
 Number     Number      Type              X           Y           Z
 ---------------------------------------------------------------------
    1         16             0       -0.930134    0.771786    1.266928
    2         16             0        3.351547    3.247448    0.455766
    3          8             0       -5.496248    1.490354    0.865336
    4          8             0       -0.143628   -1.913618   -1.288305
    5          8             0       -4.934225   -1.442547   -1.354554
    6          8             0       -3.314784   -3.102365   -1.130055
    7          8             0        2.670204   -2.760589    0.419288
    8          8             0        4.691120   -2.712257   -0.972192
    9          7             0       -1.669128   -1.714004    0.774058
   10          7             0        1.647451   -0.782610    1.216743
   11          7             0        4.708202   -1.353319   -0.921266
   12          7             0        4.847495    1.652964   -0.886498
   13          7             0        5.344854    3.987439   -1.461089
   14          6             0       -0.845842   -0.921330    1.729993
   15          6             0        0.400596   -1.561013    1.198201
   16          6             0       -3.417813    0.121375    0.555382
   17          6             0       -4.779646    0.558609   -0.015442
   18          6             0       -0.406238   -1.770470   -0.065965
   19          6             0       -2.926139   -1.123795    0.221732
   20          6             0       -2.647838    1.096375    1.469623
   21          6             0       -4.676622    1.282418   -1.349489
   22          6             0       -6.102090    1.751242   -1.411687
   23          6             0       -6.126966    2.443613   -0.057246
   24          6             0       -3.725413   -1.961375   -0.793758
   25          6             0        2.686200   -1.503181    0.466624
   26          6             0        3.793993   -0.719250   -0.261282
   27          6             0        3.813425    0.819543   -0.203487
   28          6             0        2.885469    1.552451    0.463018
   29          6             0        4.625607    2.934137   -0.730241
   30          6             0        5.450214   -3.239708    0.118899
   31          1             0       -1.048381   -0.954199    2.780135
   32          1             0        0.645611   -2.499182    1.650646
   33          1             0       -5.388528   -0.309331   -0.159816
   34          1             0       -2.930412    0.939311    2.489614
   35          1             0       -2.865901    2.107398    1.195432
   36          1             0       -4.369297    0.657773   -2.162060
   37          1             0       -4.000824    2.110852   -1.305992
   38          1             0       -6.331693    2.395059   -2.234902
   39          1             0       -6.778009    0.922737   -1.451838
   40          1             0        1.946903   -0.655307    2.162323
   41          1             0       -5.508244    3.314120   -0.122840
   42          1             0       -7.106997    2.738779    0.254710
   43          1             0       -5.528414   -2.167823   -1.560746
   44          1             0        2.001740    1.158556    0.919932
   45          1             0        6.460199   -2.892914    0.051330
   46          1             0        5.436789   -4.308873    0.078843
   47          1             0        5.021649   -2.911999    1.042933
   48          1             0        6.270105    3.673288   -1.673737
   49          1             0        5.394087    4.811058   -0.896085
 ---------------------------------------------------------------------
 Rotational constants (GHZ):      0.2142326      0.0721792      0.0595925
 Standard basis: 6-31G (6D, 7F)
 There are   316 symmetry adapted basis functions of A   symmetry.
 Integral buffers will be    262144 words long.
 Raffenetti 1 integral format.
 Two-electron integral symmetry is turned on.
   316 basis functions,   784 primitive gaussians,   316 cartesian basis functions
   118 alpha electrons      118 beta electrons
       nuclear repulsion energy      3316.1208269611 Hartrees.
 NAtoms=   49 NActive=   49 NUniq=   49 SFac= 1.00D+00 NAtFMM=   60 Big=F
 One-electron integrals computed using PRISM.
 NBasis=   316 RedAO= T  NBF=   316
 NBsUse=   316 1.00D-06 NBFU=   316
 Harris functional with IExCor=  205 diagonalized for initial guess.
 ExpMin= 1.17D-01 ExpMax= 2.19D+04 ExpMxC= 3.30D+03 IAcc=1 IRadAn=         1 AccDes= 1.00D-06
 HarFok:  IExCor= 205 AccDes= 1.00D-06 IRadAn=         1 IDoV=1
 ScaDFX=  1.000000  1.000000  1.000000  1.000000
 Initial guess orbital symmetries:
       Occupied  (A) (A) (A) (A) (A) (A) (A) (A) (A) (A) (A) (A)
                 (A) (A) (A) (A) (A) (A) (A) (A) (A) (A) (A) (A)
                 (A) (A) (A) (A) (A) (A) (A) (A) (A) (A) (A) (A)
                 (A) (A) (A) (A) (A) (A) (A) (A) (A) (A) (A) (A)
                 (A) (A) (A) (A) (A) (A) (A) (A) (A) (A) (A) (A)
                 (A) (A) (A) (A) (A) (A) (A) (A) (A) (A) (A) (A)
                 (A) (A) (A) (A) (A) (A) (A) (A) (A) (A) (A) (A)
                 (A) (A) (A) (A) (A) (A) (A) (A) (A) (A) (A) (A)
                 (A) (A) (A) (A) (A) (A) (A) (A) (A) (A) (A) (A)
                 (A) (A) (A) (A) (A) (A) (A) (A) (A) (A)
       Virtual   (A) (A) (A) (A) (A) (A) (A) (A) (A) (A) (A) (A)
                 (A) (A) (A) (A) (A) (A) (A) (A) (A) (A) (A) (A)
                 (A) (A) (A) (A) (A) (A) (A) (A) (A) (A) (A) (A)
                 (A) (A) (A) (A) (A) (A) (A) (A) (A) (A) (A) (A)
                 (A) (A) (A) (A) (A) (A) (A) (A) (A) (A) (A) (A)
                 (A) (A) (A) (A) (A) (A) (A) (A) (A) (A) (A) (A)
                 (A) (A) (A) (A) (A) (A) (A) (A) (A) (A) (A) (A)
                 (A) (A) (A) (A) (A) (A) (A) (A) (A) (A) (A) (A)
                 (A) (A) (A) (A) (A) (A) (A) (A) (A) (A) (A) (A)
                 (A) (A) (A) (A) (A) (A) (A) (A) (A) (A) (A) (A)
                 (A) (A) (A) (A) (A) (A) (A) (A) (A) (A) (A) (A)
                 (A) (A) (A) (A) (A) (A) (A) (A) (A) (A) (A) (A)
                 (A) (A) (A) (A) (A) (A) (A) (A) (A) (A) (A) (A)
                 (A) (A) (A) (A) (A) (A) (A) (A) (A) (A) (A) (A)
                 (A) (A) (A) (A) (A) (A) (A) (A) (A) (A) (A) (A)
                 (A) (A) (A) (A) (A) (A) (A) (A) (A) (A) (A) (A)
                 (A) (A) (A) (A) (A) (A)
 The electronic state of the initial guess is 1-A.
 Requested convergence on RMS density matrix=1.00D-08 within 128 cycles.
 Requested convergence on MAX density matrix=1.00D-06.
 Requested convergence on             energy=1.00D-06.
 No special actions if energy rises.
 Integral accuracy reduced to 1.0D-05 until final iterations.
 Initial convergence to 1.0D-05 achieved.  Increase integral accuracy.
 SCF Done:  E(RHF) =  -2170.20515373     A.U. after   18 cycles
             Convg  =    0.4766D-08             -V/T =  1.9999
             S**2   =   0.0000

 **********************************************************************

            Population analysis using the SCF density.

 **********************************************************************

 Orbital symmetries:
       Occupied  (A) (A) (A) (A) (A) (A) (A) (A) (A) (A) (A) (A)
                 (A) (A) (A) (A) (A) (A) (A) (A) (A) (A) (A) (A)
                 (A) (A) (A) (A) (A) (A) (A) (A) (A) (A) (A) (A)
                 (A) (A) (A) (A) (A) (A) (A) (A) (A) (A) (A) (A)
                 (A) (A) (A) (A) (A) (A) (A) (A) (A) (A) (A) (A)
                 (A) (A) (A) (A) (A) (A) (A) (A) (A) (A) (A) (A)
                 (A) (A) (A) (A) (A) (A) (A) (A) (A) (A) (A) (A)
                 (A) (A) (A) (A) (A) (A) (A) (A) (A) (A) (A) (A)
                 (A) (A) (A) (A) (A) (A) (A) (A) (A) (A) (A) (A)
                 (A) (A) (A) (A) (A) (A) (A) (A) (A) (A)
       Virtual   (A) (A) (A) (A) (A) (A) (A) (A) (A) (A) (A) (A)
                 (A) (A) (A) (A) (A) (A) (A) (A) (A) (A) (A) (A)
                 (A) (A) (A) (A) (A) (A) (A) (A) (A) (A) (A) (A)
                 (A) (A) (A) (A) (A) (A) (A) (A) (A) (A) (A) (A)
                 (A) (A) (A) (A) (A) (A) (A) (A) (A) (A) (A) (A)
                 (A) (A) (A) (A) (A) (A) (A) (A) (A) (A) (A) (A)
                 (A) (A) (A) (A) (A) (A) (A) (A) (A) (A) (A) (A)
                 (A) (A) (A) (A) (A) (A) (A) (A) (A) (A) (A) (A)
                 (A) (A) (A) (A) (A) (A) (A) (A) (A) (A) (A) (A)
                 (A) (A) (A) (A) (A) (A) (A) (A) (A) (A) (A) (A)
                 (A) (A) (A) (A) (A) (A) (A) (A) (A) (A) (A) (A)
                 (A) (A) (A) (A) (A) (A) (A) (A) (A) (A) (A) (A)
                 (A) (A) (A) (A) (A) (A) (A) (A) (A) (A) (A) (A)
                 (A) (A) (A) (A) (A) (A) (A) (A) (A) (A) (A) (A)
                 (A) (A) (A) (A) (A) (A) (A) (A) (A) (A) (A) (A)
                 (A) (A) (A) (A) (A) (A) (A) (A) (A) (A) (A) (A)
                 (A) (A) (A) (A) (A) (A)
 The electronic state is 1-A.
 Alpha  occ. eigenvalues --  -91.98835 -91.96001 -20.63886 -20.60533 -20.60098
 Alpha  occ. eigenvalues --  -20.59745 -20.58695 -20.57197 -15.65836 -15.64928
 Alpha  occ. eigenvalues --  -15.62915 -15.60148 -15.59002 -11.44370 -11.42698
 Alpha  occ. eigenvalues --  -11.41801 -11.37405 -11.34590 -11.34173 -11.33852
 Alpha  occ. eigenvalues --  -11.32992 -11.31895 -11.31893 -11.29974 -11.29748
 Alpha  occ. eigenvalues --  -11.28663 -11.28577 -11.27878 -11.23626 -11.23468
 Alpha  occ. eigenvalues --   -9.00866  -8.98374  -6.69005  -6.68861  -6.68571
 Alpha  occ. eigenvalues --   -6.66560  -6.66340  -6.66065  -1.47304  -1.47110
 Alpha  occ. eigenvalues --   -1.43186  -1.41039  -1.38105  -1.37385  -1.33014
 Alpha  occ. eigenvalues --   -1.29995  -1.26387  -1.20996  -1.18789  -1.15749
 Alpha  occ. eigenvalues --   -1.11630  -1.09933  -1.08142  -1.04109  -1.01834
 Alpha  occ. eigenvalues --   -0.98614  -0.97199  -0.95791  -0.90454  -0.89419
 Alpha  occ. eigenvalues --   -0.84924  -0.84573  -0.83908  -0.81438  -0.79601
 Alpha  occ. eigenvalues --   -0.79093  -0.76603  -0.74659  -0.73937  -0.72928
 Alpha  occ. eigenvalues --   -0.72468  -0.70434  -0.70287  -0.69349  -0.68735
 Alpha  occ. eigenvalues --   -0.68009  -0.67789  -0.66523  -0.65374  -0.65015
 Alpha  occ. eigenvalues --   -0.64855  -0.64521  -0.63156  -0.62047  -0.61958
 Alpha  occ. eigenvalues --   -0.61136  -0.60646  -0.59972  -0.57771  -0.57408
 Alpha  occ. eigenvalues --   -0.57162  -0.56671  -0.55606  -0.54854  -0.54216
 Alpha  occ. eigenvalues --   -0.53963  -0.52706  -0.52262  -0.51775  -0.51242
 Alpha  occ. eigenvalues --   -0.51011  -0.49301  -0.49002  -0.48568  -0.48113
 Alpha  occ. eigenvalues --   -0.46672  -0.46458  -0.46280  -0.44237  -0.43612
 Alpha  occ. eigenvalues --   -0.42656  -0.42329  -0.41541  -0.38945  -0.38011
 Alpha  occ. eigenvalues --   -0.37644  -0.35998  -0.33255
 Alpha virt. eigenvalues --    0.04723   0.06750   0.11447   0.11898   0.15497
 Alpha virt. eigenvalues --    0.17538   0.18029   0.18433   0.19964   0.20451
 Alpha virt. eigenvalues --    0.20726   0.21111   0.22475   0.24153   0.25037
 Alpha virt. eigenvalues --    0.25181   0.25995   0.26392   0.26866   0.27648
 Alpha virt. eigenvalues --    0.27754   0.28753   0.29858   0.29932   0.30434
 Alpha virt. eigenvalues --    0.30653   0.30802   0.31207   0.31911   0.32124
 Alpha virt. eigenvalues --    0.32764   0.33208   0.33679   0.34284   0.34918
 Alpha virt. eigenvalues --    0.35663   0.36168   0.36882   0.37535   0.38603
 Alpha virt. eigenvalues --    0.39404   0.40215   0.41427   0.42201   0.42500
 Alpha virt. eigenvalues --    0.43882   0.44305   0.46163   0.47066   0.48107
 Alpha virt. eigenvalues --    0.49002   0.49399   0.49756   0.51548   0.51811
 Alpha virt. eigenvalues --    0.53097   0.54636   0.57443   0.59096   0.60519
 Alpha virt. eigenvalues --    0.61018   0.61461   0.61830   0.63753   0.65891
 Alpha virt. eigenvalues --    0.67800   0.69765   0.71506   0.72440   0.73580
 Alpha virt. eigenvalues --    0.74179   0.75511   0.76610   0.77292   0.77821
 Alpha virt. eigenvalues --    0.78603   0.79183   0.79685   0.80646   0.80966
 Alpha virt. eigenvalues --    0.81094   0.81671   0.82329   0.82972   0.83919
 Alpha virt. eigenvalues --    0.84494   0.85040   0.86245   0.87049   0.87583
 Alpha virt. eigenvalues --    0.88198   0.88482   0.89152   0.89948   0.91872
 Alpha virt. eigenvalues --    0.92104   0.92399   0.93210   0.94004   0.95556
 Alpha virt. eigenvalues --    0.95863   0.96959   0.97292   0.98581   0.99722
 Alpha virt. eigenvalues --    1.01693   1.02061   1.02130   1.03544   1.04339
 Alpha virt. eigenvalues --    1.05187   1.06118   1.07359   1.07556   1.08012
 Alpha virt. eigenvalues --    1.08271   1.08634   1.10232   1.10401   1.12290
 Alpha virt. eigenvalues --    1.12661   1.13799   1.14283   1.14526   1.15760
 Alpha virt. eigenvalues --    1.16038   1.16649   1.17316   1.17630   1.18625
 Alpha virt. eigenvalues --    1.19438   1.20117   1.20694   1.21168   1.21727
 Alpha virt. eigenvalues --    1.21807   1.22338   1.22700   1.23414   1.23837
 Alpha virt. eigenvalues --    1.24755   1.24998   1.26259   1.26435   1.26962
 Alpha virt. eigenvalues --    1.27180   1.28384   1.29132   1.29809   1.30442
 Alpha virt. eigenvalues --    1.31439   1.31768   1.32695   1.33216   1.35087
 Alpha virt. eigenvalues --    1.36120   1.36869   1.37450   1.39034   1.39666
 Alpha virt. eigenvalues --    1.40249   1.41207   1.42760   1.44435   1.45701
 Alpha virt. eigenvalues --    1.47056   1.48824   1.49742   1.51113   1.53995
 Alpha virt. eigenvalues --    1.56305   1.57241   1.61501   1.62385   1.63530
 Alpha virt. eigenvalues --    1.66057   1.66983   1.69765   1.71562   1.74197
 Alpha virt. eigenvalues --    1.77231   1.81571   1.84401   1.84704   1.86286
 Alpha virt. eigenvalues --    1.89315   1.92128   1.93090   2.04359   2.06602
 Alpha virt. eigenvalues --    2.11358   2.14021   2.16864   2.17344   2.30106
 Alpha virt. eigenvalues --    2.32711   2.36425   2.45562
          Condensed to atoms (all electrons):
              1          2          3          4          5          6
     1  S   15.636546   0.000159   0.000329  -0.001482  -0.000017  -0.000028
     2  S    0.000159  15.297891   0.000000   0.000000   0.000000   0.000000
     3  O    0.000329   0.000000   8.720417   0.000000   0.000694   0.000000
     4  O   -0.001482   0.000000   0.000000   8.129428   0.000001  -0.000792
     5  O   -0.000017   0.000000   0.000694   0.000001   8.678970  -0.100493
     6  O   -0.000028   0.000000   0.000000  -0.000792  -0.100493   8.236731
     7  O   -0.000021   0.000001   0.000000  -0.000671   0.000000   0.000000
     8  O    0.000000   0.000001   0.000000   0.000000   0.000000   0.000000
     9  N   -0.113432   0.000000  -0.000011  -0.053920   0.000689   0.001431
    10  N    0.005380   0.000392   0.000000   0.001634   0.000000   0.000000
    11  N   -0.000001   0.000031   0.000000   0.000002   0.000000   0.000000
    12  N   -0.000001  -0.080528   0.000000   0.000000   0.000000   0.000000
    13  N    0.000000  -0.052024   0.000000   0.000000   0.000000   0.000000
    14  C    0.192504  -0.000007  -0.000004   0.003753  -0.000013   0.000133
    15  C   -0.086603   0.000001   0.000000  -0.062683   0.000000  -0.000019
    16  C   -0.085775   0.000000  -0.046377   0.000053   0.036398   0.005746
    17  C    0.004688   0.000000   0.118476   0.000000  -0.107935  -0.000805
    18  C    0.012213  -0.000001   0.000000   0.505497   0.000006   0.001712
    19  C   -0.003028   0.000000   0.000200   0.003433  -0.122027  -0.108097
    20  C    0.155808  -0.000001   0.001432   0.000022   0.000187  -0.000017
    21  C   -0.000150   0.000000  -0.058425  -0.000001  -0.009103   0.000042
    22  C    0.000030   0.000000  -0.061684   0.000000   0.001205   0.000000
    23  C   -0.000005   0.000000   0.164864   0.000000  -0.000139   0.000000
    24  C   -0.000950   0.000000   0.000274   0.000998   0.163991   0.499270
    25  C    0.000155   0.000064   0.000000   0.003700   0.000000   0.000000
    26  C   -0.000196  -0.001796   0.000000  -0.000144   0.000000   0.000000
    27  C    0.000259  -0.132815   0.000000  -0.000009   0.000000   0.000000
    28  C   -0.001649   0.260262   0.000000   0.000005   0.000000   0.000000
    29  C   -0.000002   0.204503   0.000000   0.000000   0.000000   0.000000
    30  C    0.000000   0.000000   0.000000   0.000000   0.000000   0.000000
    31  H   -0.062517   0.000000  -0.000001  -0.000122   0.000000   0.000001
    32  H    0.003666   0.000000   0.000000  -0.000027   0.000000   0.000002
    33  H   -0.000107   0.000000  -0.036926   0.000000  -0.012590  -0.000122
    34  H   -0.037639   0.000000   0.000087   0.000000   0.000002   0.000001
    35  H   -0.039031   0.000000   0.001961   0.000000  -0.000002   0.000000
    36  H   -0.000026   0.000000   0.003104   0.000001   0.000154  -0.000106
    37  H   -0.000021   0.000000   0.000675   0.000000   0.000252   0.000000
    38  H   -0.000001   0.000000   0.002918   0.000000  -0.000006   0.000000
    39  H    0.000000   0.000000   0.001031   0.000000   0.001649   0.000001
    40  H   -0.000373  -0.000041   0.000000  -0.000061   0.000000   0.000000
    41  H   -0.000011   0.000000  -0.049093   0.000000   0.000001   0.000000
    42  H    0.000000   0.000000  -0.028378   0.000000   0.000000   0.000000
    43  H   -0.000001   0.000000  -0.000038   0.000000   0.256064   0.000858
    44  H    0.004031  -0.006510   0.000000  -0.000021   0.000000   0.000000
    45  H    0.000000   0.000000   0.000000   0.000000   0.000000   0.000000
    46  H    0.000000   0.000000   0.000000   0.000000   0.000000   0.000000
    47  H    0.000000   0.000000   0.000000   0.000000   0.000000   0.000000
    48  H    0.000000   0.002457   0.000000   0.000000   0.000000   0.000000
    49  H    0.000000  -0.000348   0.000000   0.000000   0.000000   0.000000
              7          8          9         10         11         12
     1  S   -0.000021   0.000000  -0.113432   0.005380  -0.000001  -0.000001
     2  S    0.000001   0.000001   0.000000   0.000392   0.000031  -0.080528
     3  O    0.000000   0.000000  -0.000011   0.000000   0.000000   0.000000
     4  O   -0.000671   0.000000  -0.053920   0.001634   0.000002   0.000000
     5  O    0.000000   0.000000   0.000689   0.000000   0.000000   0.000000
     6  O    0.000000   0.000000   0.001431   0.000000   0.000000   0.000000
     7  O    8.269788  -0.027594  -0.000009  -0.141194   0.001265  -0.000003
     8  O   -0.027594   8.580398   0.000000  -0.000164   0.045106  -0.000032
     9  N   -0.000009   0.000000   7.824700   0.010848   0.000000   0.000000
    10  N   -0.141194  -0.000164   0.010848   7.702878   0.002634   0.000131
    11  N    0.001265   0.045106   0.000000   0.002634   6.874144   0.006489
    12  N   -0.000003  -0.000032   0.000000   0.000131   0.006489   7.051424
    13  N    0.000000   0.000000   0.000000   0.000000  -0.000004  -0.076297
    14  C    0.000205   0.000000   0.002654  -0.043886   0.000000   0.000000
    15  C    0.005125   0.000012  -0.236966   0.114668  -0.000166   0.000000
    16  C    0.000000   0.000000  -0.069135   0.000028   0.000000   0.000000
    17  C    0.000000   0.000000   0.002158   0.000000   0.000000   0.000000
    18  C   -0.000671  -0.000001   0.140397  -0.037481   0.000000   0.000000
    19  C    0.000000   0.000000   0.227088  -0.000377   0.000000   0.000000
    20  C    0.000000   0.000000  -0.006504  -0.000026   0.000000   0.000000
    21  C    0.000000   0.000000   0.000016   0.000000   0.000000   0.000000
    22  C    0.000000   0.000000   0.000000   0.000000   0.000000   0.000000
    23  C    0.000000   0.000000   0.000001   0.000000   0.000000   0.000000
    24  C    0.000000   0.000000  -0.040166   0.000001   0.000000   0.000000
    25  C    0.497327  -0.011105  -0.000251   0.121961  -0.080485   0.001605
    26  C   -0.105693  -0.089807   0.000000  -0.127056   0.414151  -0.026245
    27  C    0.002830   0.005120  -0.000001   0.024079  -0.074649   0.398633
    28  C   -0.000208  -0.000010  -0.000003  -0.051858   0.003698  -0.136108
    29  C    0.000000  -0.000001   0.000000   0.000017  -0.000144   0.341774
    30  C   -0.005277   0.121789   0.000000  -0.000063  -0.069601   0.000012
    31  H    0.000003   0.000000  -0.035347   0.000526   0.000000   0.000000
    32  H    0.009865   0.000005   0.005836  -0.055126  -0.000003   0.000000
    33  H    0.000000   0.000000   0.000165   0.000000   0.000000   0.000000
    34  H    0.000000   0.000000  -0.000901  -0.000005   0.000000   0.000000
    35  H    0.000000   0.000000  -0.000054   0.000003   0.000000   0.000000
    36  H    0.000000   0.000000  -0.000002   0.000000   0.000000   0.000000
    37  H    0.000000   0.000000  -0.000001   0.000000   0.000000   0.000000
    38  H    0.000000   0.000000   0.000000   0.000000   0.000000   0.000000
    39  H    0.000000   0.000000   0.000000   0.000000   0.000000   0.000000
    40  H    0.000499   0.000003  -0.000280   0.320055  -0.000100   0.000004
    41  H    0.000000   0.000000   0.000000   0.000000   0.000000   0.000000
    42  H    0.000000   0.000000   0.000000   0.000000   0.000000   0.000000
    43  H    0.000000   0.000000  -0.000027   0.000000   0.000000   0.000000
    44  H    0.000025   0.000001   0.000023  -0.006828   0.000045   0.001560
    45  H    0.000167  -0.044623   0.000000   0.000000   0.002056   0.000003
    46  H   -0.000229  -0.023676   0.000000   0.000000   0.004889   0.000000
    47  H    0.001954  -0.047140   0.000000  -0.000131  -0.004450  -0.000001
    48  H    0.000000   0.000000   0.000000   0.000000   0.000001   0.000941
    49  H    0.000000   0.000000   0.000000   0.000000   0.000000   0.003266
             13         14         15         16         17         18
     1  S    0.000000   0.192504  -0.086603  -0.085775   0.004688   0.012213
     2  S   -0.052024  -0.000007   0.000001   0.000000   0.000000  -0.000001
     3  O    0.000000  -0.000004   0.000000  -0.046377   0.118476   0.000000
     4  O    0.000000   0.003753  -0.062683   0.000053   0.000000   0.505497
     5  O    0.000000  -0.000013   0.000000   0.036398  -0.107935   0.000006
     6  O    0.000000   0.000133  -0.000019   0.005746  -0.000805   0.001712
     7  O    0.000000   0.000205   0.005125   0.000000   0.000000  -0.000671
     8  O    0.000000   0.000000   0.000012   0.000000   0.000000  -0.000001
     9  N    0.000000   0.002654  -0.236966  -0.069135   0.002158   0.140397
    10  N    0.000000  -0.043886   0.114668   0.000028   0.000000  -0.037481
    11  N   -0.000004   0.000000  -0.000166   0.000000   0.000000   0.000000
    12  N   -0.076297   0.000000   0.000000   0.000000   0.000000   0.000000
    13  N    7.026894   0.000000   0.000000   0.000000   0.000000   0.000000
    14  C    0.000000   6.073339   0.097475  -0.006560   0.000350  -0.237461
    15  C    0.000000   0.097475   5.650937  -0.001507  -0.000013   0.206313
    16  C    0.000000  -0.006560  -0.001507   5.654682   0.171596   0.001734
    17  C    0.000000   0.000350  -0.000013   0.171596   5.277034  -0.000006
    18  C    0.000000  -0.237461   0.206313   0.001734  -0.000006   4.751313
    19  C    0.000000  -0.043821   0.020108   0.331737   0.007915  -0.040689
    20  C    0.000000  -0.054525   0.006880   0.134125  -0.011843  -0.001353
    21  C    0.000000   0.000000   0.000000  -0.064361   0.273924   0.000017
    22  C    0.000000   0.000000   0.000000   0.010264  -0.117955   0.000000
    23  C    0.000000   0.000000   0.000000   0.005191  -0.082903   0.000000
    24  C    0.000000   0.004220  -0.000181  -0.026342  -0.020968  -0.001809
    25  C    0.000000   0.006144  -0.059572   0.000000   0.000000  -0.003976
    26  C    0.000083  -0.000020   0.004535   0.000000   0.000000   0.000047
    27  C    0.004094   0.000011  -0.000978   0.000000   0.000000   0.000020
    28  C    0.002049   0.000060   0.001430  -0.000001   0.000000   0.000123
    29  C    0.224448   0.000000   0.000000   0.000000   0.000000   0.000000
    30  C    0.000000   0.000000   0.000010   0.000000   0.000000   0.000000
    31  H    0.000000   0.378022  -0.032664   0.000399   0.000050   0.013189
    32  H    0.000000  -0.035910   0.405496  -0.000007   0.000000  -0.033211
    33  H    0.000000  -0.000012   0.000001  -0.072700   0.440976   0.000000
    34  H    0.000000  -0.006614  -0.000237  -0.042360  -0.000690   0.000065
    35  H    0.000000   0.003595  -0.000069  -0.030639  -0.003680   0.000012
    36  H    0.000000   0.000000   0.000000  -0.001313  -0.025763   0.000001
    37  H    0.000000  -0.000002   0.000000  -0.004650  -0.049261  -0.000001
    38  H    0.000000   0.000000   0.000000  -0.000158   0.007753   0.000000
    39  H    0.000000   0.000000   0.000000   0.000293  -0.008554   0.000000
    40  H    0.000000  -0.003134  -0.029237   0.000000   0.000000   0.003309
    41  H    0.000000   0.000000   0.000000   0.000794   0.001166   0.000000
    42  H    0.000000   0.000000   0.000000  -0.000197   0.002706   0.000000
    43  H    0.000000   0.000001   0.000000  -0.001763   0.004087  -0.000001
    44  H   -0.000002   0.000402   0.000450   0.000007   0.000000  -0.000004
    45  H    0.000000   0.000000   0.000000   0.000000   0.000000   0.000000
    46  H    0.000000   0.000000   0.000000   0.000000   0.000000   0.000000
    47  H    0.000000   0.000000  -0.000013   0.000000   0.000000   0.000000
    48  H    0.329818   0.000000   0.000000   0.000000   0.000000   0.000000
    49  H    0.319727   0.000000   0.000000   0.000000   0.000000   0.000000
             19         20         21         22         23         24
     1  S   -0.003028   0.155808  -0.000150   0.000030  -0.000005  -0.000950
     2  S    0.000000  -0.000001   0.000000   0.000000   0.000000   0.000000
     3  O    0.000200   0.001432  -0.058425  -0.061684   0.164864   0.000274
     4  O    0.003433   0.000022  -0.000001   0.000000   0.000000   0.000998
     5  O   -0.122027   0.000187  -0.009103   0.001205  -0.000139   0.163991
     6  O   -0.108097  -0.000017   0.000042   0.000000   0.000000   0.499270
     7  O    0.000000   0.000000   0.000000   0.000000   0.000000   0.000000
     8  O    0.000000   0.000000   0.000000   0.000000   0.000000   0.000000
     9  N    0.227088  -0.006504   0.000016   0.000000   0.000001  -0.040166
    10  N   -0.000377  -0.000026   0.000000   0.000000   0.000000   0.000001
    11  N    0.000000   0.000000   0.000000   0.000000   0.000000   0.000000
    12  N    0.000000   0.000000   0.000000   0.000000   0.000000   0.000000
    13  N    0.000000   0.000000   0.000000   0.000000   0.000000   0.000000
    14  C   -0.043821  -0.054525   0.000000   0.000000   0.000000   0.004220
    15  C    0.020108   0.006880   0.000000   0.000000   0.000000  -0.000181
    16  C    0.331737   0.134125  -0.064361   0.010264   0.005191  -0.026342
    17  C    0.007915  -0.011843   0.273924  -0.117955  -0.082903  -0.020968
    18  C   -0.040689  -0.001353   0.000017   0.000000   0.000000  -0.001809
    19  C    5.375870  -0.042566  -0.005016  -0.000056  -0.000022   0.246498
    20  C   -0.042566   5.706723  -0.000801   0.000115  -0.000230   0.002382
[...]
 003499,-0.00004372,0.00006949,-0.00007634,0.00006240,-0.02962521,-0.06
 691574,0.00576794,0.00000953,-0.00001511,-0.00009434,-0.00000573,-0.00
 001415,-0.00000628,-0.00001380,-0.00000090,0.00000201,-0.00005573,-0.0
 0000665,0.00000049,0.00001985,0.00000146,0.00000744,-0.00000771,-0.000
 00184,-0.00000609,0.00000013,0.00001175,0.00000039,-0.00000046,0.00000
 098,0.00000427,-0.00000272,-0.00000102,-0.00000301,-0.00013219,0.00019
 488,0.00018521,-0.00000056,-0.00000179,-0.00000548,-0.00000464,-0.0000
 0074,-0.00000070,-0.00000128,0.00001437,-0.00000029,-0.00001698,0.0000
 0829,-0.00000776,-0.02291961,-0.00096137,0.00742216,0.03942071,0.06504
 237,0.00004428,-0.00004210,0.00000163,0.00026040,-0.00002762,-0.000044
 84,0.00004028,-0.00001282,-0.00002223,-0.00002718,-0.00011139,0.000061
 10,0.00002176,-0.00000524,0.00001431,0.00000905,0.00000097,0.00004242,
 -0.00037789,0.00003069,-0.00010379,0.03977597,0.00898253,-0.02025840,-
 0.00004204,-0.00001267,0.00009422,-0.00069945,-0.00014668,0.00013241,-
 0.00412741,0.00432142,-0.00697404,0.00011335,-0.00002041,0.00004097,0.
 00015435,-0.00008782,0.00008301,0.00000137,-0.00002056,-0.00016169,0.0
 0005325,-0.00009343,0.00009178,0.00001207,-0.00001388,-0.00002634,-0.0
 0002293,0.00002203,0.00001798,0.00006529,0.00016713,-0.00007334,-0.000
 01172,0.00000920,-0.00001359,-0.00006969,-0.00006862,0.00007001,-0.000
 00412,-0.00000361,-0.00000814,-0.00000051,0.00000023,0.00000209,-0.000
 01645,0.00000045,0.00002689,-0.00002893,-0.00000382,-0.00005940,0.0012
 6742,-0.00015063,0.00025060,0.00290829,-0.00005140,-0.00033192,-0.0003
 4543,0.00057664,-0.00065966,0.00008781,-0.00008124,0.00006214,-0.00014
 862,0.00013895,-0.00013171,0.07051615,0.00613053,-0.07964784,-0.000003
 57,0.00000900,0.00005677,0.00003029,0.00000863,0.00001312,0.00000873,-
 0.00000086,-0.00000112,0.00004840,0.00000656,0.00000422,-0.00000373,0.
 00001631,0.00000345,-0.00000468,-0.00000129,-0.00000136,0.00000004,0.0
 0000202,0.00001261,0.00000146,0.00000253,-0.00000316,0.00000394,-0.000
 00143,-0.00000030,0.00021830,0.00027995,-0.00049152,-0.00000118,0.0000
 0034,-0.00000428,0.00000489,-0.00000266,-0.00000239,-0.00001085,0.0000
 0250,-0.00000438,0.00003321,-0.00001230,0.00001556,-0.02270326,-0.0024
 7553,0.01058840,-0.09121137,-0.01717139,0.09651107,-0.00000712,-0.0000
 3367,-0.00002711,0.00011891,-0.00001928,-0.00004045,-0.00002861,-0.000
 01229,0.00000677,-0.00000307,-0.00019826,-0.00000595,-0.00002582,-0.00
 004226,0.00000013,-0.00001634,-0.00002244,-0.00001480,-0.00012824,0.00
 009733,-0.00007068,0.00158015,0.00100850,-0.00052479,-0.00001812,-0.00
 007974,-0.00005014,-0.00029666,-0.00011608,-0.00014093,0.00115508,-0.0
 0082445,-0.00008830,0.00008617,0.00001364,-0.00009196,0.00010210,-0.00
 005669,0.00001686,0.00000302,0.00005893,0.00005362,0.00001698,0.000005
 74,0.00007547,-0.00001991,0.00002118,0.00003604,0.00001502,0.00000259,
 -0.00001336,-0.00001448,0.00025927,0.00006146,0.00000915,-0.00001696,-
 0.00001838,0.00006158,0.00001699,-0.00004716,-0.00000111,0.00000426,0.
 00000153,-0.00000079,-0.00000425,0.00000211,0.00001489,0.00000629,-0.0
 0000981,0.00004316,0.00005538,0.00001908,0.00044211,-0.00033098,0.0001
 0834,-0.00017009,-0.00021439,-0.00005738,0.00002549,0.00030593,0.00004
 320,-0.00004172,-0.00002891,0.00002406,-0.00011754,0.00005861,-0.00001
 701,-0.13181270,0.12223728,0.01503001,-0.00000419,-0.00000540,-0.00003
 060,0.00000938,0.00000519,-0.00000047,-0.00000802,-0.00000059,0.000001
 98,-0.00002735,-0.00000214,-0.00000265,0.00000209,-0.00000068,0.000003
 61,-0.00000530,-0.00000079,-0.00000492,0.00000200,0.00000753,0.0000005
 8,-0.00000191,0.00000035,0.00000401,-0.00000122,-0.00000012,-0.0000012
 9,-0.00000025,0.00025521,0.00010046,-0.00000014,-0.00000083,-0.0000011
 3,-0.00000251,-0.00000075,0.00000066,-0.00000174,0.00001305,-0.0000020
 1,0.00001885,0.00000309,0.00002029,0.01101547,-0.01855794,-0.00297779,
 -0.01316868,0.03222738,0.00419213,0.13123950,0.00000487,0.00002608,-0.
 00002879,-0.00014049,0.00004658,-0.00003354,0.00003453,0.00000493,-0.0
 0001483,0.00003191,0.00012042,0.00002126,0.00003154,0.00003216,0.00000
 254,0.00002219,0.00001548,0.00001576,-0.00003939,-0.00014339,0.0002452
 8,0.00850499,-0.01412019,0.01101022,0.00008516,0.00002641,0.00000866,0
 .00020584,0.00004784,0.00042648,0.00232977,0.00096381,-0.00212804,-0.0
 0008024,0.00013027,-0.00008193,-0.00005773,0.00007606,-0.00006346,-0.0
 0001982,0.00000029,-0.00001257,-0.00014632,0.00001033,-0.00002796,0.00
 002689,-0.00001288,-0.00002689,-0.00002221,0.00000372,0.00001521,-0.00
 006873,-0.00015224,-0.00002976,-0.00003076,0.00000393,0.00001003,-0.00
 005832,-0.00000255,0.00004558,0.00000558,-0.00000649,0.00000081,-0.000
 00058,0.00000403,-0.00000372,-0.00001722,-0.00000551,0.00001646,-0.000
 04559,-0.00003932,-0.00001960,0.00001320,0.00015785,-0.00070394,-0.000
 82942,0.00013726,-0.00012157,0.00018388,-0.00012949,0.00028660,0.00001
 030,0.00005726,-0.00006430,0.00000944,-0.00012949,0.00013648,0.1177045
 1,-0.28686327,-0.03234928,0.00000569,-0.00000132,-0.00000178,0.0000237
 8,-0.00002018,0.00001329,0.00000820,0.00000105,-0.00000219,0.00001681,
 0.00000034,-0.00000071,0.00000881,-0.00000293,-0.00000493,0.00000160,0
 .00000065,0.00000277,-0.00000105,-0.00000472,0.00000087,0.00000234,0.0
 0000056,-0.00000401,0.00000151,0.00000026,0.00000150,-0.00029776,-0.00
 017075,-0.00038212,0.00000014,0.00000037,-0.00000057,0.00000348,-0.000
 00026,-0.00000158,-0.00000416,-0.00000782,-0.00000057,0.00000942,0.000
 00806,-0.00001521,0.01296035,-0.01767731,-0.00364372,-0.00424366,0.008
 06486,-0.00010145,-0.13610853,0.30957469,-0.00000949,-0.00002494,0.000
 04082,0.00012123,0.00000885,0.00001026,-0.00000812,0.00000187,0.000016
 70,-0.00004920,-0.00008511,0.00000134,-0.00001197,-0.00001373,0.000005
 95,-0.00001273,-0.00000263,0.00001750,-0.00003062,0.00024642,-0.000343
 65,-0.01953261,0.04591759,-0.01642583,-0.00013316,0.00002591,0.0000825
 3,-0.00034488,-0.00004952,-0.00061909,-0.00427969,-0.00116679,0.003519
 38,0.00010288,-0.00006175,-0.00002382,0.00005132,-0.00004989,0.0000165
 8,0.00003263,-0.00004023,-0.00010751,0.00027279,-0.00005838,0.00000364
 ,-0.00001093,-0.00000908,-0.00000822,0.00001145,-0.00000325,-0.0000064
 9,0.00015250,0.00011110,-0.00001614,0.00003784,0.00001846,0.00000314,0
 .00000874,0.00001267,0.00001564,-0.00001080,0.00000613,-0.00000518,0.0
 0000028,-0.00000300,0.00000358,0.00000020,0.00000236,-0.00001496,0.000
 01283,0.00000611,-0.00002542,0.00008083,-0.00004505,0.00084591,0.00009
 315,-0.00004115,-0.00013860,-0.00017110,-0.00020237,-0.00030208,-0.000
 01115,-0.00000058,0.00002420,-0.00002684,0.00006122,-0.00004261,0.0229
 7217,-0.04159669,-0.06340765,-0.00001478,0.00000601,0.00003997,-0.0000
 3922,0.00003681,-0.00002544,-0.00000080,-0.00000124,0.00000187,-0.0000
 0130,0.00000024,-0.00000108,-0.00002021,0.00000114,0.00000157,0.000000
 18,0.00000002,-0.00000048,0.00000255,0.00000068,0.00000213,-0.00000305
 ,-0.00000067,0.00000131,0.00000169,-0.00000001,0.00000074,0.00056514,0
 .00029556,0.00060471,0.00000020,0.00000070,0.00000386,0.00000005,-0.00
 000049,0.00000211,0.00000012,0.00000178,-0.00000104,-0.00001102,-0.000
 02098,0.00000098,0.01214113,-0.02047738,0.00090335,0.00364689,-0.01040
 016,0.00085921,-0.01557700,0.02757685,0.07447914,0.00000581,-0.0000023
 4,-0.00000355,-0.00337976,0.00096990,0.00005307,0.00002154,-0.00000651
 ,-0.00001176,0.00003349,-0.00001597,0.00000269,0.00002005,0.00000797,0
 .00000267,0.00001542,0.00000078,0.00000693,-0.00005523,-0.00012192,0.0
 0012732,-0.00000774,-0.00007440,0.00009019,0.00006824,-0.00002430,-0.0
 0000988,0.00011403,-0.00007364,0.00004720,0.00008700,-0.00009882,-0.00
 002450,0.00391904,-0.00207116,0.00067524,-0.08763485,0.00497360,0.0142
 2912,0.00000400,0.00000522,0.00000280,-0.00004030,0.00003403,-0.000028
 48,0.00001025,-0.00000240,-0.00000332,-0.00001569,0.00000916,0.0000072
 1,-0.00006798,0.00002651,0.00001665,-0.00002636,-0.00000449,-0.0000011
 5,-0.00001884,0.00000037,0.00000778,0.00000057,-0.00000400,-0.00000245
 ,-0.00000063,0.00000176,-0.00000199,-0.00001119,-0.00000051,0.00001089
 ,-0.00002485,-0.00000740,-0.00000858,-0.00011733,0.00024542,-0.0001928
 3,0.00015476,-0.00002552,0.00011498,-0.00119252,-0.00040180,-0.0000135
 4,0.00021055,0.00074384,-0.00071949,0.00279579,0.03072297,-0.03500594,
 -0.00003971,0.00006484,-0.00000674,0.00000446,-0.00000187,-0.00000063,
 -0.00000161,-0.00000120,-0.00000086,0.00000361,0.,-0.00000039,0.000004
 57,-0.00000014,0.00000097,0.00000134,0.00000157,-0.00000151,-0.0000009
 2,-0.00000027,0.00000036,0.00000098,-0.00000054,0.00000290,0.00000023,
 0.00000069,-0.00000169,0.00000201,-0.00000028,0.00000111,-0.00003352,0
 .00002043,-0.00000582,-0.00000015,0.00000078,-0.00000108,0.00000329,-0
 .00000121,-0.00000079,-0.00000705,0.00000038,-0.00000165,-0.00033155,-
 0.00009061,0.00046323,-0.00001251,0.00000759,0.00001368,0.00002158,-0.
 00000942,0.00000590,-0.00002118,-0.00003631,0.00000772,0.07705153,-0.0
 0000620,-0.00000993,-0.00000311,0.00139126,0.00127198,-0.00079085,-0.0
 0001343,-0.00000894,0.00000072,-0.00000808,-0.00010144,-0.00002834,-0.
 00001614,-0.00002402,-0.00000459,-0.00000985,-0.00001660,-0.00001816,-
 0.00014029,-0.00010866,-0.00002143,-0.00022541,-0.00010182,0.00009605,
 -0.00002276,-0.00003878,-0.00001305,-0.00019168,-0.00009746,-0.0000669
 6,0.00014442,-0.00014630,-0.00005176,-0.00368710,-0.00059757,-0.001350
 28,0.00825739,-0.23013737,0.25045224,0.00001170,0.00001993,0.00000321,
 0.00003279,-0.00002202,0.00004598,-0.00000919,0.00000535,0.00001534,0.
 00000734,0.00000422,-0.00000349,0.00001114,0.00012871,0.00003744,0.000
 00764,-0.00000638,-0.00001093,0.00002287,-0.00000235,-0.00001362,-0.00
 000030,0.00000215,0.00000107,0.00000042,-0.00000172,0.00000116,0.00000
 758,0.00000384,-0.00000211,0.00002664,0.00003311,0.00002458,0.00022896
 ,0.00017906,0.00006606,0.00002442,0.00029231,-0.00007449,0.00060953,-0
 .00171427,-0.00119842,-0.00092588,0.00041205,0.00056779,0.00205509,-0.
 00757709,0.01646023,-0.00000778,0.00016683,-0.00008477,0.00000055,-0.0
 0000043,0.00000058,0.00000607,0.00001103,0.00000289,-0.00000373,0.0000
 0009,0.00000053,-0.00000438,0.00000035,-0.00000003,-0.00000271,0.00000
 188,0.00000165,-0.00000137,-0.00000086,-0.00000164,-0.00000002,0.00000
 250,-0.00000043,-0.00000051,0.00000025,0.00000199,-0.00000137,-0.00000
 008,-0.00000120,0.00000513,0.00004751,0.00002521,-0.00000072,-0.000000
 16,-0.00000157,-0.00000075,-0.00000005,0.00000033,0.00000005,0.0000090
 4,0.00000105,0.00030390,0.00071110,0.00037585,0.00001468,-0.00001800,-
 0.00001097,-0.00000821,-0.00001358,0.00000964,0.00000717,-0.00002167,0
 .00001254,-0.01117005,0.23673771,0.00000838,-0.00000176,-0.00001077,-0
 .00044851,-0.00069445,0.00187401,0.00001854,-0.00000782,-0.00002093,0.
 00004205,-0.00004107,-0.00002502,0.00001938,0.00000720,-0.00000778,0.0
 0001646,-0.00000406,-0.00002252,0.00011742,0.00000502,-0.00014869,0.00
 028984,0.00007923,-0.00029578,0.00008381,-0.00004384,-0.00004111,0.000
 14002,-0.00001565,-0.00002659,-0.00027799,-0.00001597,-0.00007736,0.00
 261426,-0.00179675,-0.00119212,0.01044282,0.25096878,-0.31378211,0.000
 00578,0.00001178,0.00003017,-0.00004982,0.00005148,-0.00000996,0.00000
 552,0.00000290,0.00000788,-0.00001634,0.00001136,0.00001024,-0.0000962
 9,0.00006322,0.00004939,-0.00003403,-0.00001454,-0.00000581,-0.0000062
 4,-0.00000203,-0.00000317,0.00000527,-0.00000509,0.00000013,-0.0000002
 5,0.00000232,-0.00000171,-0.00000793,-0.00000184,0.00001754,-0.0000203
 2,0.00000165,0.00003151,-0.00008512,-0.00003676,0.00012778,-0.00013894
 ,-0.00002604,0.00026380,-0.00106065,-0.00097272,-0.00119810,0.00119926
 ,0.00015465,0.00024722,-0.00140603,0.00874415,-0.00296405,0.00004511,-
 0.00008789,0.00028424,0.00000442,-0.00000155,-0.00000763,-0.00000683,0
 .00000210,0.00000265,0.00000159,0.00000062,-0.00000119,0.00000041,-0.0
 0000048,0.00000170,0.00000398,0.00000177,-0.00000159,-0.00000099,-0.00
 000088,0.00000112,-0.00000122,-0.00000080,0.00000128,0.00000179,0.0000
 0106,-0.00000236,0.00000034,-0.00000035,0.00000012,-0.00001089,0.00001
 757,0.00003356,-0.00000082,0.00000021,-0.00000336,0.00000244,-0.000000
 69,-0.00000136,-0.00000652,0.00000162,0.00000139,0.00002818,0.00046009
 ,0.00052832,0.00000637,-0.00003180,-0.00004226,-0.00000991,0.00001257,
 -0.00002869,0.00001082,0.00003301,0.00000499,-0.00554406,-0.26413239,0
 .32205311,0.00001182,0.00000114,-0.00000661,0.00067504,0.00075259,-0.0
 0082493,0.00003542,-0.00000709,-0.00002010,0.00005291,0.00000979,0.000
 00402,0.00003541,0.00002029,0.00000198,0.00002697,0.00000595,0.0000063
 9,0.00028777,0.00001867,-0.00007668,0.00033482,0.00007240,-0.00019931,
 0.00010897,-0.00002576,-0.00001969,0.00022641,0.00004345,0.00000828,-0
 .00013426,0.00003483,-0.00003546,-0.00185078,0.00282219,-0.00274477,-0
 .41418776,-0.06555357,0.19180162,0.00000032,0.00000023,0.00000975,-0.0
 0008528,0.00005618,-0.00004319,0.00001643,-0.00000383,-0.00000676,-0.0
 0002580,0.00001276,0.00001262,-0.00011206,0.00000128,0.00001889,-0.000
 04340,-0.00000770,0.00000173,-0.00003157,0.00000078,0.00001217,0.00000
 234,-0.00000703,-0.00000314,-0.00000097,0.00000341,-0.00000351,-0.0000
 1828,-0.00000225,0.00001855,-0.00004501,-0.00002035,-0.00000745,-0.000
 34916,-0.00015742,0.00011420,-0.00039092,0.00015516,-0.00012243,0.0000
 7346,0.00010549,0.00110084,-0.00046606,-0.00067796,0.00053812,-0.02220
 957,-0.01100846,0.01835735,-0.00000359,-0.00007250,0.00018107,0.000005
 20,-0.00000194,-0.00000326,-0.00000812,-0.00000507,0.00000006,0.000005
 94,0.00000014,-0.00000096,0.00000669,-0.00000045,0.00000178,0.00000391
 ,0.00000167,-0.00000283,-0.00000085,-0.00000027,0.00000126,0.00000090,
 -0.00000171,0.00000384,0.00000093,0.00000103,-0.00000326,0.00000294,-0
 .00000036,0.00000180,-0.00003345,0.00000948,-0.00001299,-0.00000012,0.
 00000107,-0.00000170,0.00000492,-0.00000164,-0.00000143,-0.00001033,-0
 .00000228,-0.00000193,0.00024827,0.00004488,-0.00032939,-0.00001631,0.
 00000185,-0.00001035,0.00001497,0.00000780,-0.00001738,-0.00001631,0.0
 0000155,-0.00000586,0.00848732,0.00328115,-0.00588454,0.42936988,-0.00
 000055,-0.00000635,-0.00000461,0.00022358,0.00015447,0.00082860,-0.000
 00041,-0.00000796,-0.00000607,0.00001002,-0.00006012,-0.00002366,-0.00
 000203,-0.00001025,-0.00000461,0.00000058,-0.00001063,-0.00001596,-0.0
 0006692,-0.00006119,0.00003041,-0.00009321,-0.00005283,0.00003727,0.00
 002024,-0.00003454,-0.00001968,-0.00001473,-0.00006164,-0.00001410,-0.
 00003058,0.00000844,0.00002533,0.00317986,-0.00180415,0.00130243,-0.06
 911774,-0.06308352,0.08586945,0.00000769,0.00001649,0.00001063,0.00000
 081,0.00001728,0.00001780,-0.00000188,0.00000327,0.00001003,-0.0000020
 1,0.00000632,0.00000162,-0.00002867,0.00007757,0.00003720,-0.00000792,
 -0.00000799,-0.00000789,0.00000850,-0.00000125,-0.00000757,0.00000149,
 -0.00000069,0.00000051,0.00000021,-0.00000006,-0.00000011,0.00000104,0
 .00000169,0.00000430,0.00000706,0.00001805,0.00002190,0.00010631,0.000
 11894,-0.00010759,0.00037586,-0.00024273,0.00024580,0.00038613,0.00309
 639,0.00132880,0.00069917,-0.00101421,-0.00062704,0.01809315,0.0053258
 6,-0.01523604,0.00000354,0.00004776,-0.00000172,0.00000270,-0.00000098
 ,-0.00000211,0.00000003,0.00000690,0.00000172,-0.00000119,0.00000032,-
 0.00000010,-0.00000164,0.00000014,0.00000040,-0.00000002,0.00000143,0.
 00000023,-0.00000093,-0.00000076,-0.00000049,-0.00000031,0.00000096,0.
 00000022,0.00000027,0.00000041,0.00000035,-0.00000056,-0.00000013,-0.0
 0000056,0.00000243,0.00001853,0.00002826,-0.00000063,0.00000006,-0.000
 00186,0.00000063,-0.00000024,-0.00000027,-0.00000210,0.00000556,0.0000
 0102,-0.00026430,-0.00051556,-0.00029221,0.00000472,-0.00000862,-0.000
 00717,-0.00000495,-0.00000121,0.00000253,0.00000754,-0.00000376,0.0000
 0406,-0.02359071,0.00072655,0.00730286,0.07009043,0.05733799,-0.000000
 54,-0.00000386,-0.00000518,-0.00022004,0.00066332,0.00018576,-0.000001
 42,-0.00000507,-0.00000660,0.00000381,-0.00005189,-0.00002434,-0.00000
 137,-0.00000666,-0.00000699,0.00000008,-0.00000783,-0.00002145,-0.0000
 1733,-0.00002196,-0.00001841,0.00001778,0.00000860,-0.00005102,0.00000
 508,-0.00002538,-0.00001796,-0.00007854,-0.00002532,-0.00005483,0.0000
 5336,-0.00001869,-0.00001256,-0.00322919,0.00145138,-0.00075380,0.1966
 4473,0.08492603,-0.16238381,0.00000560,0.00001044,0.00000860,0.0000050
 1,-0.00000397,0.00002754,-0.00000409,0.00000327,0.00000953,-0.00000069
 ,0.00000461,0.00000210,-0.00001485,0.00006998,0.00003134,-0.00000427,-
 0.00000723,-0.00000625,0.00000974,-0.00000189,-0.00000691,0.00000177,-
 0.00000049,0.00000080,0.00000023,0.,0.00000020,0.00000145,0.00000060,0
 .00000461,0.00000591,0.00001389,0.00002888,0.00003516,-0.00001717,0.00
 008105,-0.00022501,0.00026888,-0.00025502,0.00055411,0.00146567,0.0025
 3559,-0.00100701,-0.00028650,-0.00083353,-0.01645949,-0.00704094,0.009
 64294,0.00001003,0.00002167,0.00003335,0.00000037,0.00000013,-0.000001
 34,0.00000204,0.00000584,0.00000376,-0.00000157,0.00000025,-0.00000022
 ,-0.00000226,-0.00000003,0.00000051,-0.00000023,0.00000114,0.00000016,
 -0.00000066,-0.00000070,-0.00000004,-0.00000073,0.00000063,-0.00000028
 ,0.00000046,0.00000041,-0.00000005,-0.00000076,-0.00000015,-0.00000054
 ,0.00000085,0.00002090,0.00001310,-0.00000063,-0.00000008,-0.00000177,
 0.00000012,-0.00000006,-0.00000021,-0.00000132,0.00000353,0.00000188,0
 .00001732,-0.00035464,-0.00037751,0.00000154,-0.00000788,-0.00000961,-
 0.00000306,-0.00000025,-0.00000182,0.00000287,-0.00000065,0.00000220,0
 .02570206,-0.00031956,-0.00565018,-0.20180641,-0.08073231,0.15788831||
 -0.00000230,-0.00000283,0.00001409,-0.00000482,-0.00000528,-0.00000568
 ,-0.00000036,-0.00000299,-0.00000444,0.00000362,0.00000335,0.00000529,
 -0.00000125,-0.00000106,-0.00000021,-0.00000332,-0.00000142,0.00000223
 ,0.00000797,0.00000445,-0.00000328,0.00000951,-0.00000433,0.00000917,-
 0.00001187,0.00000180,-0.00000146,-0.00000819,-0.00000642,-0.00000553,
 -0.00000371,-0.00000286,-0.00000207,0.00000310,-0.00000592,-0.00000793
 ,-0.00000842,-0.00000364,-0.00000926,0.00001172,0.00000787,-0.00001224
 ,-0.00000514,-0.00000807,-0.00000743,0.00000136,-0.00000812,0.00000158
 ,-0.00000080,0.00000391,0.00000177,0.00000896,0.00000385,0.00000089,-0
 .00000510,0.00000102,0.00000531,0.00000118,-0.00000038,-0.00000300,-0.
 00000134,-0.00000190,0.00000186,0.00000029,0.00000064,0.00000037,-0.00
 000114,-0.00000185,0.00000057,0.00000692,0.00000414,-0.00000935,-0.000
 00591,-0.00001235,0.00001622,-0.00000259,0.00000652,-0.00000061,-0.000
 00479,0.00000524,-0.00000752,0.00000960,0.00000158,0.00000936,0.000006
 66,0.00001618,0.00001952,-0.00000463,0.00000491,-0.00000962,-0.0000005
 6,-0.00000220,0.00000170,-0.00000247,0.00000100,-0.00000023,0.00000150
 ,0.00000067,-0.00000080,-0.00000056,0.00000247,0.00000105,-0.00000048,
 0.00000140,-0.00000171,-0.00000008,0.00000076,-0.00000056,0.00000088,-
 0.00000046,0.00000057,-0.00000001,0.00000020,0.00000137,-0.00000009,-0
 .00000044,-0.00000038,0.00000173,0.00000484,-0.00000099,0.00000109,0.0
 0000008,0.00000104,0.00000154,0.00000142,-0.00000062,0.00000010,0.0000
 0021,0.00000066,0.00000002,-0.00000262,-0.00000491,0.00000023,0.000000
 11,0.00000092,-0.00000069,-0.00000067,0.00000253,0.00000088,-0.0000013
 9,0.00000114,0.00000074,-0.00000046,0.00000102,0.00000104,-0.00000095,
 -0.00000038|||@


 When I told the people of Northern Ireland that I was
 an atheist, a woman in the audience stood up and said,
 "Yes, but is it the God of the Catholics or the God
 of the Protestants in whom you don't believe?"
                               -- Quentin Crisp
 Job cpu time:  0 days  1 hours 32 minutes 26.0 seconds.
 File lengths (MBytes):  RWF=    937 Int=      0 D2E=      0 Chk=     12 Scr=      1
 Normal termination of Gaussian 03 at Mon Jan 03 17:00:41 2022.
