 Entering Link 1 = C:\G03W\l1.exe PID=      2248.
  
 Copyright (c) 1988,1990,1992,1993,1995,1998,2003,2004, Gaussian, Inc.
                  All Rights Reserved.
  
 This is the Gaussian(R) 03 program.  It is based on the
 the Gaussian(R) 98 system (copyright 1998, Gaussian, Inc.),
 the Gaussian(R) 94 system (copyright 1995, Gaussian, Inc.),
 the Gaussian 92(TM) system (copyright 1992, Gaussian, Inc.),
 the Gaussian 90(TM) system (copyright 1990, Gaussian, Inc.),
 the Gaussian 88(TM) system (copyright 1988, Gaussian, Inc.),
 the Gaussian 86(TM) system (copyright 1986, Carnegie Mellon
 University), and the Gaussian 82(TM) system (copyright 1983,
 Carnegie Mellon University). Gaussian is a federally registered
 trademark of Gaussian, Inc.
  
 This software contains proprietary and confidential information,
 including trade secrets, belonging to Gaussian, Inc.
  
 This software is provided under written license and may be
 used, copied, transmitted, or stored only in accord with that
 written license.
  
 The following legend is applicable only to US Government
 contracts under FAR:
  
                    RESTRICTED RIGHTS LEGEND
  
 Use, reproduction and disclosure by the US Government is
 subject to restrictions as set forth in subparagraphs (a)
 and (c) of the Commercial Computer Software - Restricted
 Rights clause in FAR 52.227-19.
  
 Gaussian, Inc.
 340 Quinnipiac St., Bldg. 40, Wallingford CT 06492
  
  
 ---------------------------------------------------------------
 Warning -- This program may not be used in any manner that
 competes with the business of Gaussian, Inc. or will provide
 assistance to any competitor of Gaussian, Inc.  The licensee
 of this program is prohibited from giving any competitor of
 Gaussian, Inc. access to this program.  By using this program,
 the user acknowledges that Gaussian, Inc. is engaged in the
 business of creating and licensing software in the field of
 computational chemistry and represents and warrants to the
 licensee that it is not a competitor of Gaussian, Inc. and that
 it will not use this program in any manner prohibited above.
 ---------------------------------------------------------------
  

 Cite this work as:
 Gaussian 03, Revision C.01,
 M. J. Frisch, G. W. Trucks, H. B. Schlegel, G. E. Scuseria, 
 M. A. Robb, J. R. Cheeseman, J. A. Montgomery, Jr., T. Vreven, 
 K. N. Kudin, J. C. Burant, J. M. Millam, S. S. Iyengar, J. Tomasi, 
 V. Barone, B. Mennucci, M. Cossi, G. Scalmani, N. Rega, 
 G. A. Petersson, H. Nakatsuji, M. Hada, M. Ehara, K. Toyota, 
 R. Fukuda, J. Hasegawa, M. Ishida, T. Nakajima, Y. Honda, O. Kitao, 
 H. Nakai, M. Klene, X. Li, J. E. Knox, H. P. Hratchian, J. B. Cross, 
 C. Adamo, J. Jaramillo, R. Gomperts, R. E. Stratmann, O. Yazyev, 
 A. J. Austin, R. Cammi, C. Pomelli, J. W. Ochterski, P. Y. Ayala, 
 K. Morokuma, G. A. Voth, P. Salvador, J. J. Dannenberg, 
 V. G. Zakrzewski, S. Dapprich, A. D. Daniels, M. C. Strain, 
 O. Farkas, D. K. Malick, A. D. Rabuck, K. Raghavachari, 
 J. B. Foresman, J. V. Ortiz, Q. Cui, A. G. Baboul, S. Clifford, 
 J. Cioslowski, B. B. Stefanov, G. Liu, A. Liashenko, P. Piskorz, 
 I. Komaromi, R. L. Martin, D. J. Fox, T. Keith, M. A. Al-Laham, 
 C. Y. Peng, A. Nanayakkara, M. Challacombe, P. M. W. Gill, 
 B. Johnson, W. Chen, M. W. Wong, C. Gonzalez, and J. A. Pople, 
 Gaussian, Inc., Wallingford CT, 2004.
 
 ******************************************
 Gaussian 03:  IA32W-G03RevC.01  3-Apr-2004
                11-Dec-2021 
 ******************************************
 %mem=512MB
 %chk=C:\Users\moaz\Documents\cefpodoxime\uvvis_cefpodoxime.chk
 Default route:  MaxDisk=2000MB
 ----------------------------------
 # td b3lyp/6-31g geom=connectivity
 ----------------------------------
 1/38=1,57=2/1;
 2/17=6,18=5,40=1/2;
 3/5=1,6=6,11=2,16=1,25=1,30=1,74=-5/1,2,8,3;
 4//1;
 5/5=2,38=5/2;
 8/6=1,10=2,27=262144000/1;
 9/27=262144000,42=1/14;
 6/7=2,8=2,9=2,10=2/1;
 99/5=1,9=1/99;
 ---------------------
 uv vis of cefpodoxime
 ---------------------
 Symbolic Z-matrix:
 Charge =  0 Multiplicity = 1
 S                    -1.38408  -0.63747  -1.76746 
 S                     3.20023  -2.5523   -2.43312 
 O                    -0.49837   0.96017   1.55251 
 O                    -6.19736  -0.97589  -0.69435 
 O                    -3.71497   1.75537   2.29089 
 O                    -5.02559  -0.11917   1.84775 
 O                     1.92599   2.81034   0.053 
 O                     4.12734   2.54445   1.10457 
 N                    -2.28854   1.33032  -0.25818 
 N                     1.00084   1.15369  -1.35907 
 N                     4.27446   1.32694   0.51667 
 N                     4.71132  -1.38078  -0.72255 
 N                     5.52377  -3.65304  -1.17427 
 C                    -1.54237   1.09602  -1.52636 
 C                    -0.30143   1.66699  -0.91018 
 C                    -0.92597   1.25451   0.40617 
 C                    -3.38183   0.39059   0.13564 
 C                    -3.78938  -0.69325  -0.6145 
 C                    -3.0709   -1.11786  -1.91174 
 C                    -4.99848  -1.5164   -0.13271 
 C                    -4.09997   0.64688   1.47362 
 C                     2.06212   1.68378  -0.49098 
 C                     3.34053   0.86046  -0.24725 
 C                     3.50713  -0.51819  -0.91296 
 C                    -7.32009  -1.74025  -0.24698 
 C                     2.56875  -1.07444  -1.72075 
 C                     4.59966  -2.52374  -1.35202 
 C                     5.41224   3.14652   1.28194 
 H                    -1.90283   1.49457  -2.45163 
 H                    -0.2236    2.73219  -0.97487 
 H                    -3.51813  -0.62966  -2.7523 
 H                    -3.14167  -2.17763  -2.04126 
 H                     1.16603   1.4428   -2.30201 
 H                    -4.88503  -2.53336  -0.44546 
 H                    -5.05494  -1.47579   0.93502 
 H                    -4.47495   2.06475   2.7892 
 H                    -8.21716  -1.33582  -0.66722 
 H                    -7.37656  -1.69964   0.82076 
 H                    -7.20664  -2.75721  -0.55973 
 H                     1.59101  -0.6759   -1.89419 
 H                     6.43375  -3.30647  -0.94663 
 H                     5.57084  -4.18181  -2.02172 
 H                     5.88507   3.26517   0.32944 
 H                     5.29649   4.10441   1.74448 
 H                     6.01658   2.52046   1.90462 
 
                          Input orientation:                          
 ---------------------------------------------------------------------
 Center     Atomic     Atomic              Coordinates (Angstroms)
 Number     Number      Type              X           Y           Z
 ---------------------------------------------------------------------
    1         16             0       -1.384076   -0.637471   -1.767458
    2         16             0        3.200227   -2.552298   -2.433124
    3          8             0       -0.498370    0.960168    1.552510
    4          8             0       -6.197360   -0.975894   -0.694350
    5          8             0       -3.714966    1.755365    2.290891
    6          8             0       -5.025591   -0.119166    1.847746
    7          8             0        1.925989    2.810336    0.053000
    8          8             0        4.127343    2.544448    1.104566
    9          7             0       -2.288541    1.330320   -0.258180
   10          7             0        1.000842    1.153692   -1.359074
   11          7             0        4.274463    1.326937    0.516670
   12          7             0        4.711319   -1.380783   -0.722551
   13          7             0        5.523767   -3.653042   -1.174265
   14          6             0       -1.542374    1.096022   -1.526360
   15          6             0       -0.301433    1.666988   -0.910178
   16          6             0       -0.925970    1.254507    0.406170
   17          6             0       -3.381831    0.390590    0.135639
   18          6             0       -3.789380   -0.693246   -0.614497
   19          6             0       -3.070902   -1.117856   -1.911735
   20          6             0       -4.998475   -1.516395   -0.132715
   21          6             0       -4.099968    0.646879    1.473621
   22          6             0        2.062122    1.683782   -0.490979
   23          6             0        3.340535    0.860460   -0.247254
   24          6             0        3.507126   -0.518193   -0.912959
   25          6             0       -7.320091   -1.740247   -0.246980
   26          6             0        2.568748   -1.074444   -1.720745
   27          6             0        4.599660   -2.523737   -1.352024
   28          6             0        5.412238    3.146515    1.281939
   29          1             0       -1.902834    1.494572   -2.451631
   30          1             0       -0.223604    2.732191   -0.974868
   31          1             0       -3.518127   -0.629662   -2.752304
   32          1             0       -3.141670   -2.177627   -2.041260
   33          1             0        1.166026    1.442799   -2.302011
   34          1             0       -4.885026   -2.533360   -0.445463
   35          1             0       -5.054943   -1.475789    0.935022
   36          1             0       -4.474949    2.064747    2.789196
   37          1             0       -8.217158   -1.335816   -0.667224
   38          1             0       -7.376557   -1.699641    0.820757
   39          1             0       -7.206641   -2.757212   -0.559727
   40          1             0        1.591006   -0.675901   -1.894192
   41          1             0        6.433750   -3.306470   -0.946631
   42          1             0        5.570838   -4.181813   -2.021723
   43          1             0        5.885071    3.265173    0.329443
   44          1             0        5.296488    4.104410    1.744475
   45          1             0        6.016578    2.520462    1.904618
 ---------------------------------------------------------------------
                    Distance matrix (angstroms):
                    1          2          3          4          5
     1  S    0.000000
     2  S    5.012535   0.000000
     3  O    3.789342   6.473200   0.000000
     4  O    4.943055   9.686228   6.424578   0.000000
     5  O    5.256320   9.417652   3.394706   4.746970   0.000000
     6  O    5.157418   9.586973   4.663459   2.927333   2.329803
     7  O    5.114487   6.046680   3.398407   8.993490   6.159666
     8  O    6.982039   6.273086   4.909971  11.055695   7.970685
     9  N    2.639730   7.066234   2.572998   4.559356   2.951798
    10  N    3.010461   4.441311   3.280611   7.535987   5.993587
    11  N    6.410554   4.990363   4.897695  10.790212   8.195266
    12  N    6.228819   2.565523   6.147911  10.916226   9.482538
    13  N    7.560677   2.862726   8.061212  12.032549  11.252215
    14  C    1.757322   6.051836   3.253896   5.162748   4.441429
    15  C    2.686555   5.690638   2.569671   6.464778   4.680476
    16  C    2.917894   6.291173   1.258400   5.828670   3.403164
    17  C    2.944437   7.653928   3.262865   3.237803   2.572683
    18  C    2.667942   7.457753   4.273224   2.425826   3.800331
    19  C    1.759820   6.454187   4.789269   3.358112   5.131499
    20  C    4.063099   8.578094   5.405950   1.430000   4.269154
    21  C    4.419300   8.876386   3.616059   3.425280   1.430000
    22  C    4.346711   4.797038   3.354934   8.679532   6.412384
    23  C    5.184281   4.055198   4.241024   9.723349   7.551365
    24  C    4.966715   2.557865   4.930323   9.717732   8.221455
    25  C    6.226093  10.775701   7.554222   1.430000   5.626457
    26  C    3.977178   1.757925   4.925552   8.826542   7.974089
    27  C    6.287741   1.768617   6.823769  10.927213  10.035664
    28  C    8.355073   7.153401   6.307821  12.477288   9.287579
    29  H    2.298436   6.512966   4.276827   5.256823   5.083635
    30  H    3.650961   6.463354   3.098903   7.036643   4.879444
    31  H    2.350353   6.995333   5.493443   3.396077   5.582197
    32  H    2.352910   6.365029   5.454171   3.549024   5.879169
    33  H    3.334111   4.485082   4.226166   7.915435   6.709436
    34  H    4.195083   8.326012   5.953099   2.051796   5.220138
    35  H    4.634807   8.980596   5.203608   2.051796   3.751570
    36  H    6.133398  10.368127   4.308441   4.934297   0.960000
    37  H    6.956236  11.617010   8.353350   2.051796   6.210925
    38  H    6.613387  11.098790   7.410770   2.051796   5.244579
    39  H    6.313017  10.576129   7.954958   2.051796   6.378180
    40  H    2.978028   2.530001   4.349939   7.885953   7.181873
    41  H    8.301549   3.637872   8.514940  12.846796  11.794073
    42  H    7.810112   2.905920   8.720688  12.269080  11.835324
    43  H    8.512821   6.977329   6.896177  12.846008   9.914005
    44  H    8.913420   8.133782   6.595718  12.801012   9.328606
    45  H    8.844567   7.244358   6.708431  12.967629   9.769213
                    6          7          8          9         10
     6  O    0.000000
     7  O    7.754196   0.000000
     8  O    9.561556   2.454067   0.000000
     9  N    3.745313   4.477672   6.670438   0.000000
    10  N    6.944188   2.365232   4.216483   3.473212   0.000000
    11  N    9.505471   2.816166   1.360000   6.608587   3.776907
    12  N   10.149163   5.091662   4.368846   7.520888   4.538322
    13  N   11.528650   7.498363   6.749218   9.311566   6.602704
    14  C    4.999407   4.178851   6.416027   1.489947   2.549364
    15  C    5.754489   2.682605   4.944005   2.118264   1.470000
    16  C    4.557632   3.267874   5.261908   1.517797   2.615120
    17  C    2.427572   5.833948   7.871824   1.494479   4.693006
    18  C    2.814325   6.736920   8.724239   2.544464   5.187658
    19  C    4.353376   6.652804   8.621211   3.056125   4.695153
    20  C    2.423883   8.167209  10.064883   3.932336   6.680204
    21  C    1.258400   6.558267   8.451368   2.597594   5.856558
    22  C    7.678276   1.258400   2.748026   4.371201   1.470000
    23  C    8.679905   2.427573   2.298325   5.648662   2.606970
    24  C    8.977080   3.809485   3.719522   6.118455   3.045600
    25  C    3.504356  10.309597  12.297521   5.894489   8.879727
    26  C    8.445156   4.318661   4.848503   5.613844   2.748405
    27  C   10.424296   6.129841   5.651939   7.968536   5.145390
    28  C   10.951396   3.711770   1.430000   8.060553   5.514228
    29  H    5.553413   4.760704   7.078969   2.233154   3.121092
    30  H    6.257512   2.383982   4.825975   2.596700   2.034340
    31  H    4.867598   7.024367   9.132559   3.402069   5.053961
    32  H    4.786521   7.412616   9.221321   4.026524   5.359428
    33  H    7.615533   2.827328   4.646267   4.015462   1.000000
    34  H    3.332701   8.671418  10.459901   4.658844   7.005175
    35  H    1.635345   8.239068  10.025239   4.117154   6.989247
    36  H    2.441108   7.001048   8.778811   3.821814   6.929823
    37  H    4.241629  10.981473  13.060720   6.513379   9.573287
    38  H    3.013246  10.366615  12.265095   6.019358   9.114493
    39  H    4.184758  10.713448  12.622863   6.402074   9.126714
    40  H    7.621771   4.007197   5.078996   4.663940   1.995510
    41  H   12.218181   7.663843   6.615146   9.902128   7.041282
    42  H   11.990088   8.153500   7.556451   9.760304   7.056316
    43  H   11.523954   3.994700   2.051796   8.420029   5.582574
    44  H   11.153231   3.986976   2.051796   8.320990   6.065586
    45  H   11.353429   4.499492   2.051796   8.664244   6.138188
                   11         12         13         14         15
    11  N    0.000000
    12  N    3.009693   0.000000
    13  N    5.405572   2.455052   0.000000
    14  C    6.169512   6.774167   8.521028   0.000000
    15  C    4.805243   5.869565   7.893378   1.498538   0.000000
    16  C    5.202111   6.324381   8.257174   2.034637   1.514252
    17  C    7.722743   8.329065   9.867952   2.577494   3.494535
    18  C    8.389651   8.529142   9.788178   3.013637   4.221837
    19  C    8.113479   7.876944   8.991071   2.717750   4.053200
    20  C    9.720783   9.728638  10.787384   4.551000   5.727179
    21  C    8.456319   9.304480  10.868159   3.967733   4.599129
    22  C    2.457061   4.057515   6.397777   3.796033   2.400501
    23  C    1.293600   2.669855   5.098780   5.053157   3.788652
    24  C    2.457061   1.493451   3.736630   5.336609   4.390916
    25  C   12.017672  12.046169  13.018576   6.562259   7.830111
    26  C    3.698935   2.383452   3.959791   4.652959   4.050976
    27  C    4.292489   1.309599   1.470000   7.131454   6.463600
    28  C    2.278384   5.000569   7.230447   7.775454   6.296063
    29  H    6.855502   7.416495   9.126007   1.070000   2.229414
    30  H    4.942877   6.429128   8.593209   2.172636   1.070000
    31  H    8.674038   8.509281   9.663688   2.895605   4.360637
    32  H    8.592090   8.002712   8.832798   3.679626   4.911961
    33  H    4.197709   4.799626   6.799214   2.838542   2.034920
    34  H    9.986182   9.669284  10.494180   5.051146   6.234437
    35  H    9.750287   9.906384  11.004481   5.001075   5.989797
    36  H    9.069782  10.420727  12.180987   5.306830   5.591226
    37  H   12.827021  12.928674  13.944162   7.155746   8.469626
    38  H   12.041550  12.190169  13.199025   6.882033   8.024195
    39  H   12.233342  11.998285  12.776676   6.918505   8.208426
    40  H    4.126083   3.406751   4.984804   3.618436   3.168397
    41  H    5.317163   2.593309   1.000000   9.128887   8.372533
    42  H    6.202447   3.205058   1.000000   8.871229   8.362271
    43  H    2.527028   4.906046   7.088961   7.957145   6.508739
    44  H    3.204123   6.042846   8.291487   8.155906   6.657698
    45  H    2.527027   4.881130   6.916251   8.422493   6.969129
                   16         17         18         19         20
    16  C    0.000000
    17  C    2.617402   0.000000
    18  C    3.610350   1.379675   0.000000
    19  C    3.949877   2.561997   1.542508   0.000000
    20  C    4.955159   2.514388   1.540000   2.653165   0.000000
    21  C    3.403370   1.540000   2.500527   3.953973   2.840314
    22  C    3.149261   5.630419   6.317088   6.017945   7.760252
    23  C    4.334201   6.749636   7.306474   6.913086   8.671888
    24  C    4.953272   7.027316   7.304706   6.680389   8.599444
    25  C    7.090835   4.494080   3.700972   4.605907   2.335180
    26  C    4.707530   6.403271   6.464897   5.643050   7.744677
    27  C    6.920908   8.626160   8.618042   7.818395   9.727572
    28  C    6.672296   9.286806  10.149385  10.017389  11.494647
    29  H    3.029674   3.178077   3.423545   2.912156   4.901662
    30  H    2.141059   4.085427   4.957645   4.879312   6.446635
    31  H    4.499482   3.065895   2.155885   1.070000   3.136873
    32  H    4.762226   3.375250   2.158372   1.070000   2.743629
    33  H    3.427266   5.266145   5.653888   4.965967   7.173824
    34  H    5.545029   3.338677   2.148263   2.728489   1.070000
    35  H    4.978215   2.630910   2.148263   3.488346   1.070000
    36  H    4.350925   3.322510   4.434147   5.847996   4.651475
    37  H    7.811747   5.196678   4.474472   5.299082   3.267756
    38  H    7.106965   4.560295   3.992571   5.132607   2.568650
    39  H    7.514898   5.002136   3.992571   4.649704   2.568650
    40  H    3.918330   5.476013   5.530504   4.682843   6.872444
    41  H    8.763450  10.544439  10.557066   9.801014  11.600112
    42  H    8.812308  10.281603  10.087818   9.169493  11.062694
    43  H    7.102037   9.704445  10.495480  10.219749  11.896577
    44  H    6.973664   9.575700  10.542071  10.519181  11.878702
    45  H    7.214357   9.797740  10.622178  10.506388  11.907071
                   21         22         23         24         25
    21  C    0.000000
    22  C    6.550280   0.000000
    23  C    7.639902   1.540000   0.000000
    24  C    8.057359   2.667357   1.540000   0.000000
    25  C    4.362112   9.990466  10.973268  10.916298   0.000000
    26  C    7.592015   3.062157   2.551605   1.357382  10.020200
    27  C    9.680940   4.988358   3.776070   2.325644  11.996476
    28  C    9.837021   4.062770   3.443317   4.677298  13.723346
    29  H    4.577508   4.427283   5.723137   5.973810   6.683652
    30  H    5.036846   2.560831   4.090952   4.948452   8.419777
    31  H    4.452700   6.450178   7.452314   7.262906   4.686680
    32  H    4.609833   6.662830   7.380204   6.945018   4.568363
    33  H    6.528368   2.034920   3.047890   3.354952   9.293499
    34  H    3.796461   8.127067   8.900402   8.643360   2.568650
    35  H    2.389097   7.916374   8.794309   8.811415   2.568650
    36  H    1.970203   7.323795   8.470662   9.170117   5.638366
    37  H    5.046341  10.715066  11.772012  11.755328   1.070000
    38  H    4.082698  10.112214  11.070268  11.084049   1.070000
    39  H    5.037237  10.277992  11.154735  10.950926   1.070000
    40  H    6.743819   2.785509   2.851958   2.158520   9.124351
    41  H   11.508510   6.649914   5.236451   4.042370  13.860401
    42  H   11.360378   7.004247   5.792022   4.348607  13.239600
    43  H   10.385837   4.217680   3.548223   4.638107  14.133746
    44  H   10.016051   4.617123   4.279714   5.624254  14.046493
    45  H   10.297600   4.698578   3.814101   4.844534  14.165088
                   26         27         28         29         30
    26  C    0.000000
    27  C    2.522104   0.000000
    28  C    5.909149   6.304745   0.000000
    29  H    5.208559   7.722589   8.377275   0.000000
    30  H    4.779543   7.143592   6.085027   2.555845   0.000000
    31  H    6.189668   8.452619  10.501717   2.685507   5.031424
    32  H    5.824828   7.779655  10.609405   3.897200   5.810217
    33  H    2.939730   5.331578   5.811855   3.072942   2.314069
    34  H    7.701528   9.527918  11.886065   5.398372   7.052316
    35  H    8.082997   9.976980  11.447616   5.498022   6.685552
    36  H    8.933519  10.979637  10.059747   5.865759   5.717306
    37  H   10.840387  12.889955  14.479329   7.146041   8.974421
    38  H   10.283929  12.199586  13.683976   7.132543   8.604077
    39  H    9.986887  11.835159  14.052823   7.056014   8.892058
    40  H    1.070000   3.572177   6.269010   4.150736   3.969013
    41  H    4.529838   2.034920   6.902972   9.737231   8.988136
    42  H    4.331152   2.034920   8.040133   9.394783   9.081571
    43  H    5.833827   6.163691   1.070000   8.457001   6.269067
    44  H    6.802121   7.348892   1.070000   8.732056   6.304699
    45  H    6.160693   6.169061   1.070000   9.096507   6.875764
                   31         32         33         34         35
    31  H    0.000000
    32  H    1.744562   0.000000
    33  H    5.141902   5.633092   0.000000
    34  H    3.288464   2.390064   7.474748   0.000000
    35  H    4.083394   3.607138   7.595854   1.747303   0.000000
    36  H    6.235670   6.565720   7.624160   5.636823   4.038533
    37  H    5.189134   5.325148   9.921562   3.547731   3.547731
    38  H    5.366480   5.133604   9.623011   2.916527   2.335179
    39  H    4.789467   4.365186   9.527707   2.335179   2.916527
    40  H    5.180901   4.967397   2.199049   6.891151   7.267249
    41  H   10.462582   9.703668   7.220909  11.356213  11.784824
    42  H    9.785746   8.940075   7.149629  10.701733  11.356590
    43  H   10.634239  10.803997   5.702191  12.256364  11.938481
    44  H   10.969499  11.180264   6.365449  12.349861  11.787534
    45  H   11.068912  11.023407   6.510372  12.243731  11.810533
                   36         37         38         39         40
    36  H    0.000000
    37  H    6.124933   0.000000
    38  H    5.144385   1.747303   0.000000
    39  H    6.475239   1.747303   1.747303   0.000000
    40  H    8.138862   9.906615   9.425295   9.138448   0.000000
    41  H   12.720302  14.785488  14.015354  13.656927   5.591953
    42  H   12.770368  14.143664  13.486138  12.939509   5.305351
    43  H   10.715476  14.867256  14.169035  14.437890   6.238238
    44  H   10.036566  14.765873  13.969479  14.447126   7.058462
    45  H   10.538609  14.969452  14.084036  14.449234   6.650818
                   41         42         43         44         45
    41  H    0.000000
    42  H    1.632993   0.000000
    43  H    6.716837   7.815646   0.000000
    44  H    7.965962   9.106098   1.747303   0.000000
    45  H    6.500522   7.780445   1.747303   1.747303   0.000000
 Stoichiometry    C15H17N5O6S2
 Framework group  C1[X(C15H17N5O6S2)]
 Deg. of freedom   129
 Full point group                 C1      NOp   1
 Largest Abelian subgroup         C1      NOp   1
 Largest concise Abelian subgroup C1      NOp   1
                         Standard orientation:                         
 ---------------------------------------------------------------------
 Center     Atomic     Atomic              Coordinates (Angstroms)
 Number     Number      Type              X           Y           Z
 ---------------------------------------------------------------------
    1         16             0        1.218606   -1.286119    0.944166
    2         16             0       -3.363396   -3.170643    0.183028
    3          8             0        0.560614    1.801613   -1.151560
    4          8             0        6.106541   -1.135534    0.223601
    5          8             0        3.807856    2.791046   -1.129819
    6          8             0        5.118220    0.924532   -1.606324
    7          8             0       -2.010090    2.680061    0.890248
    8          8             0       -4.117340    3.036960   -0.315806
    9          7             0        2.196987    1.155888    0.726109
   10          7             0       -1.163579    0.514718    1.325024
   11          7             0       -4.284689    1.693524   -0.445318
   12          7             0       -4.760886   -1.256986   -0.800254
   13          7             0       -5.559284   -3.422858   -1.636221
   14          6             0        1.359643    0.323563    1.634972
   15          6             0        0.158822    1.156337    1.303108
   16          6             0        0.891893    1.459972    0.013390
   17          6             0        3.336522    0.524995   -0.006628
   18          6             0        3.706735   -0.798612    0.113825
   19          6             0        2.898629   -1.809973    0.952540
   20          6             0        4.966141   -1.286945   -0.625789
   21          6             0        4.150892    1.412476   -0.966201
   22          6             0       -2.164941    1.436988    0.770414
   23          6             0       -3.403489    0.881929    0.042740
   24          6             0       -3.592986   -0.639315   -0.103914
   25          6             0        7.275988   -1.588986   -0.463183
   26          6             0       -2.708917   -1.550570    0.376214
   27          6             0       -4.675041   -2.563276   -0.836138
   28          6             0       -5.396647    3.673427   -0.259398
   29          1             0        1.639016    0.185840    2.658634
   30          1             0        0.054440    2.040674    1.896364
   31          1             0        3.269224   -1.829316    1.956126
   32          1             0        2.980796   -2.788631    0.527832
   33          1             0       -1.407289    0.285511    2.267399
   34          1             0        4.849596   -2.318273   -0.885941
   35          1             0        5.104422   -0.708207   -1.515081
   36          1             0        4.597717    3.294585   -1.339982
   37          1             0        8.129295   -1.475692    0.172374
   38          1             0        7.414268   -1.010248   -1.352475
   39          1             0        7.159443   -2.620314   -0.723335
   40          1             0       -1.755932   -1.318129    0.803636
   41          1             0       -6.455765   -2.988637   -1.724389
   42          1             0       -5.661127   -4.308975   -1.184087
   43          1             0       -5.944270    3.299619    0.580410
   44          1             0       -5.264983    4.730395   -0.157503
   45          1             0       -5.937934    3.466504   -1.158893
 ---------------------------------------------------------------------
 Rotational constants (GHZ):      0.2487452      0.0777503      0.0644145
 Standard basis: 6-31G (6D, 7F)
 There are   294 symmetry adapted basis functions of A   symmetry.
 Integral buffers will be    262144 words long.
 Raffenetti 2 integral format.
 Two-electron integral symmetry is turned on.
   294 basis functions,   732 primitive gaussians,   294 cartesian basis functions
   111 alpha electrons      111 beta electrons
       nuclear repulsion energy      2970.3664889422 Hartrees.
 NAtoms=   45 NActive=   45 NUniq=   45 SFac= 1.00D+00 NAtFMM=   60 Big=F
 One-electron integrals computed using PRISM.
 NBasis=   294 RedAO= T  NBF=   294
 NBsUse=   294 1.00D-06 NBFU=   294
 Harris functional with IExCor=  402 diagonalized for initial guess.
 ExpMin= 1.17D-01 ExpMax= 2.19D+04 ExpMxC= 3.30D+03 IAcc=1 IRadAn=         1 AccDes= 1.00D-06
 HarFok:  IExCor= 402 AccDes= 1.00D-06 IRadAn=         1 IDoV=1
 ScaDFX=  1.000000  1.000000  1.000000  1.000000
 Initial guess orbital symmetries:
       Occupied  (A) (A) (A) (A) (A) (A) (A) (A) (A) (A) (A) (A)
                 (A) (A) (A) (A) (A) (A) (A) (A) (A) (A) (A) (A)
                 (A) (A) (A) (A) (A) (A) (A) (A) (A) (A) (A) (A)
                 (A) (A) (A) (A) (A) (A) (A) (A) (A) (A) (A) (A)
                 (A) (A) (A) (A) (A) (A) (A) (A) (A) (A) (A) (A)
                 (A) (A) (A) (A) (A) (A) (A) (A) (A) (A) (A) (A)
                 (A) (A) (A) (A) (A) (A) (A) (A) (A) (A) (A) (A)
                 (A) (A) (A) (A) (A) (A) (A) (A) (A) (A) (A) (A)
                 (A) (A) (A) (A) (A) (A) (A) (A) (A) (A) (A) (A)
                 (A) (A) (A)
       Virtual   (A) (A) (A) (A) (A) (A) (A) (A) (A) (A) (A) (A)
                 (A) (A) (A) (A) (A) (A) (A) (A) (A) (A) (A) (A)
                 (A) (A) (A) (A) (A) (A) (A) (A) (A) (A) (A) (A)
                 (A) (A) (A) (A) (A) (A) (A) (A) (A) (A) (A) (A)
                 (A) (A) (A) (A) (A) (A) (A) (A) (A) (A) (A) (A)
                 (A) (A) (A) (A) (A) (A) (A) (A) (A) (A) (A) (A)
                 (A) (A) (A) (A) (A) (A) (A) (A) (A) (A) (A) (A)
                 (A) (A) (A) (A) (A) (A) (A) (A) (A) (A) (A) (A)
                 (A) (A) (A) (A) (A) (A) (A) (A) (A) (A) (A) (A)
                 (A) (A) (A) (A) (A) (A) (A) (A) (A) (A) (A) (A)
                 (A) (A) (A) (A) (A) (A) (A) (A) (A) (A) (A) (A)
                 (A) (A) (A) (A) (A) (A) (A) (A) (A) (A) (A) (A)
                 (A) (A) (A) (A) (A) (A) (A) (A) (A) (A) (A) (A)
                 (A) (A) (A) (A) (A) (A) (A) (A) (A) (A) (A) (A)
                 (A) (A) (A) (A) (A) (A) (A) (A) (A) (A) (A) (A)
                 (A) (A) (A)
 The electronic state of the initial guess is 1-A.
 Requested convergence on RMS density matrix=1.00D-08 within 128 cycles.
 Requested convergence on MAX density matrix=1.00D-06.
 Requested convergence on             energy=1.00D-06.
 No special actions if energy rises.
 Integral accuracy reduced to 1.0D-05 until final iterations.
 Initial convergence to 1.0D-05 achieved.  Increase integral accuracy.
 SCF Done:  E(RB+HF-LYP) =  -2102.53202034     A.U. after   17 cycles
             Convg  =    0.6304D-08             -V/T =  2.0039
             S**2   =   0.0000
 ExpMin= 1.17D-01 ExpMax= 2.19D+04 ExpMxC= 3.30D+03 IAcc=1 IRadAn=         1 AccDes= 1.00D-06
 HarFok:  IExCor= 205 AccDes= 1.00D-06 IRadAn=         1 IDoV=1
 ScaDFX=  1.000000  1.000000  1.000000  1.000000
 Range of M.O.s used for correlation:    37   294
 NBasis=   294 NAE=   111 NBE=   111 NFC=    36 NFV=     0
 NROrb=    258 NOA=    75 NOB=    75 NVA=   183 NVB=   183
 Orbital symmetries:
       Occupied  (A) (A) (A) (A) (A) (A) (A) (A) (A) (A) (A) (A)
                 (A) (A) (A) (A) (A) (A) (A) (A) (A) (A) (A) (A)
                 (A) (A) (A) (A) (A) (A) (A) (A) (A) (A) (A) (A)
                 (A) (A) (A) (A) (A) (A) (A) (A) (A) (A) (A) (A)
                 (A) (A) (A) (A) (A) (A) (A) (A) (A) (A) (A) (A)
                 (A) (A) (A) (A) (A) (A) (A) (A) (A) (A) (A) (A)
                 (A) (A) (A) (A) (A) (A) (A) (A) (A) (A) (A) (A)
                 (A) (A) (A) (A) (A) (A) (A) (A) (A) (A) (A) (A)
                 (A) (A) (A) (A) (A) (A) (A) (A) (A) (A) (A) (A)
                 (A) (A) (A)
       Virtual   (A) (A) (A) (A) (A) (A) (A) (A) (A) (A) (A) (A)
                 (A) (A) (A) (A) (A) (A) (A) (A) (A) (A) (A) (A)
                 (A) (A) (A) (A) (A) (A) (A) (A) (A) (A) (A) (A)
                 (A) (A) (A) (A) (A) (A) (A) (A) (A) (A) (A) (A)
                 (A) (A) (A) (A) (A) (A) (A) (A) (A) (A) (A) (A)
                 (A) (A) (A) (A) (A) (A) (A) (A) (A) (A) (A) (A)
                 (A) (A) (A) (A) (A) (A) (A) (A) (A) (A) (A) (A)
                 (A) (A) (A) (A) (A) (A) (A) (A) (A) (A) (A) (A)
                 (A) (A) (A) (A) (A) (A) (A) (A) (A) (A) (A) (A)
                 (A) (A) (A) (A) (A) (A) (A) (A) (A) (A) (A) (A)
                 (A) (A) (A) (A) (A) (A) (A) (A) (A) (A) (A) (A)
                 (A) (A) (A) (A) (A) (A) (A) (A) (A) (A) (A) (A)
                 (A) (A) (A) (A) (A) (A) (A) (A) (A) (A) (A) (A)
                 (A) (A) (A) (A) (A) (A) (A) (A) (A) (A) (A) (A)
                 (A) (A) (A) (A) (A) (A) (A) (A) (A) (A) (A) (A)
                 (A) (A) (A)
    12 initial guesses have been made.
 Convergence on wavefunction:    0.001000000000000
 Iteration     1 Dimension    12 NMult    12
 CISAX will form  12 AO SS matrices at one time.
 No map to state      2
 New state      3 was old state      2
 Iteration     2 Dimension    18 NMult    18
 Iteration     3 Dimension    24 NMult    24
 Iteration     4 Dimension    30 NMult    30
 Iteration     5 Dimension    36 NMult    36
 Iteration     6 Dimension    42 NMult    42
 Iteration     7 Dimension    44 NMult    44
 ***********************************************************************
 Excited states from <AA,BB:AA,BB> singles matrix:
 ***********************************************************************
 
 Ground to excited state Transition electric dipole moments (Au):
       state          X           Y           Z          Osc.
         1         0.1564     -0.2604      0.1149      0.0073
         2         0.2413     -0.1375     -0.0149      0.0061
         3        -0.2721      0.7776     -0.0663      0.0578
 Ground to excited state transition velocity dipole Moments (Au):
       state          X           Y           Z          Osc.
         1         0.0034      0.0245     -0.0242      0.0077
         2        -0.0233      0.0171      0.0005      0.0047
         3         0.0333     -0.0709      0.0050      0.0324
 Ground to excited state transition magnetic dipole Moments (Au):
       state          X           Y           Z
         1         0.2471     -0.3415     -0.1057
         2        -0.2084     -0.0247      0.2371
         3         0.1096      0.0762      0.3722
 <0|del|b> * <b|rxdel|0>  (Au), Rotatory Strengths (R) in
 cgs (10**-40 erg-esu-cm/Gauss)
       state          X           Y           Z     R(velocity)
         1         0.0009     -0.0084      0.0026    -11.2540
         2         0.0048     -0.0004      0.0001      9.0153
         3         0.0037     -0.0054      0.0019      0.2266
 <0|r|b> * <b|rxdel|0>  (Au), Rotatory Strengths (R) in
 cgs (10**-40 erg-esu-cm/Gauss)
       state          X           Y           Z     R(length)
         1         0.0387      0.0889     -0.0121    -27.2136
         2        -0.0503      0.0034     -0.0035     11.8874
         3        -0.0298      0.0592     -0.0247     -1.1207
  <0|del|b> * <b|r|0>  (Au)
       state          X           Y           Z       Osc.(frdel)
         1         0.0005     -0.0064     -0.0028      0.0057
         2        -0.0056     -0.0023      0.0000      0.0053
         3        -0.0091     -0.0551     -0.0003      0.0430
 Ground to excited state transition densities written to RWF  633

 Excitation energies and oscillator strengths:
 
 Excited State   1:   Singlet-A      2.8285 eV  438.34 nm  f=0.0073
     106 ->112         0.13620
     109 ->112         0.48345
     110 ->112        -0.16758
     111 ->112        -0.38141
 This state for optimization and/or second-order correction.
 Copying the excited state density for this state as the 1-particle RhoCI density.
 
 Excited State   2:   Singlet-A      3.2273 eV  384.17 nm  f=0.0061
     103 ->113        -0.12823
     109 ->113         0.22641
     110 ->113         0.63367
 
 Excited State   3:   Singlet-A      3.4524 eV  359.12 nm  f=0.0578
     109 ->112         0.38744
     110 ->112        -0.15035
     111 ->112         0.52392

 **********************************************************************

            Population analysis using the SCF density.

 **********************************************************************

 Orbital symmetries:
       Occupied  (A) (A) (A) (A) (A) (A) (A) (A) (A) (A) (A) (A)
                 (A) (A) (A) (A) (A) (A) (A) (A) (A) (A) (A) (A)
                 (A) (A) (A) (A) (A) (A) (A) (A) (A) (A) (A) (A)
                 (A) (A) (A) (A) (A) (A) (A) (A) (A) (A) (A) (A)
                 (A) (A) (A) (A) (A) (A) (A) (A) (A) (A) (A) (A)
                 (A) (A) (A) (A) (A) (A) (A) (A) (A) (A) (A) (A)
                 (A) (A) (A) (A) (A) (A) (A) (A) (A) (A) (A) (A)
                 (A) (A) (A) (A) (A) (A) (A) (A) (A) (A) (A) (A)
                 (A) (A) (A) (A) (A) (A) (A) (A) (A) (A) (A) (A)
                 (A) (A) (A)
       Virtual   (A) (A) (A) (A) (A) (A) (A) (A) (A) (A) (A) (A)
                 (A) (A) (A) (A) (A) (A) (A) (A) (A) (A) (A) (A)
                 (A) (A) (A) (A) (A) (A) (A) (A) (A) (A) (A) (A)
                 (A) (A) (A) (A) (A) (A) (A) (A) (A) (A) (A) (A)
                 (A) (A) (A) (A) (A) (A) (A) (A) (A) (A) (A) (A)
                 (A) (A) (A) (A) (A) (A) (A) (A) (A) (A) (A) (A)
                 (A) (A) (A) (A) (A) (A) (A) (A) (A) (A) (A) (A)
                 (A) (A) (A) (A) (A) (A) (A) (A) (A) (A) (A) (A)
                 (A) (A) (A) (A) (A) (A) (A) (A) (A) (A) (A) (A)
                 (A) (A) (A) (A) (A) (A) (A) (A) (A) (A) (A) (A)
                 (A) (A) (A) (A) (A) (A) (A) (A) (A) (A) (A) (A)
                 (A) (A) (A) (A) (A) (A) (A) (A) (A) (A) (A) (A)
                 (A) (A) (A) (A) (A) (A) (A) (A) (A) (A) (A) (A)
                 (A) (A) (A) (A) (A) (A) (A) (A) (A) (A) (A) (A)
                 (A) (A) (A) (A) (A) (A) (A) (A) (A) (A) (A) (A)
                 (A) (A) (A)
 The electronic state is 1-A.
 Alpha  occ. eigenvalues --  -88.89916 -88.87441 -19.20123 -19.19634 -19.17132
 Alpha  occ. eigenvalues --  -19.16258 -19.16108 -19.14188 -14.40080 -14.39973
 Alpha  occ. eigenvalues --  -14.37513 -14.36237 -14.33715 -10.35913 -10.33245
 Alpha  occ. eigenvalues --  -10.33131 -10.29472 -10.27984 -10.27529 -10.26398
 Alpha  occ. eigenvalues --  -10.26247 -10.24721 -10.24557 -10.24055 -10.22562
 Alpha  occ. eigenvalues --  -10.21837 -10.21646 -10.21418  -7.98065  -7.95808
 Alpha  occ. eigenvalues --   -5.94414  -5.93966  -5.93432  -5.92224  -5.91765
 Alpha  occ. eigenvalues --   -5.90971  -1.12898  -1.10860  -1.07467  -1.06378
 Alpha  occ. eigenvalues --   -1.03829  -1.02978  -1.00720  -0.97866  -0.94616
 Alpha  occ. eigenvalues --   -0.91141  -0.89496  -0.86510  -0.83755  -0.80653
 Alpha  occ. eigenvalues --   -0.77034  -0.75794  -0.72350  -0.71593  -0.70875
 Alpha  occ. eigenvalues --   -0.67462  -0.66098  -0.64053  -0.63151  -0.60461
 Alpha  occ. eigenvalues --   -0.58874  -0.58501  -0.56727  -0.56150  -0.54306
 Alpha  occ. eigenvalues --   -0.53671  -0.51694  -0.51386  -0.50817  -0.50135
 Alpha  occ. eigenvalues --   -0.49892  -0.48718  -0.48289  -0.47615  -0.47367
 Alpha  occ. eigenvalues --   -0.46974  -0.46634  -0.46280  -0.45295  -0.44615
 Alpha  occ. eigenvalues --   -0.44460  -0.43508  -0.43411  -0.42104  -0.41619
 Alpha  occ. eigenvalues --   -0.41543  -0.40242  -0.40213  -0.39878  -0.38906
 Alpha  occ. eigenvalues --   -0.38644  -0.38294  -0.37132  -0.36262  -0.34873
 Alpha  occ. eigenvalues --   -0.32834  -0.32583  -0.31642  -0.31238  -0.30872
 Alpha  occ. eigenvalues --   -0.29437  -0.28970  -0.28517  -0.27392  -0.26288
 Alpha  occ. eigenvalues --   -0.25798  -0.25218  -0.25119  -0.23815  -0.23718
 Alpha  occ. eigenvalues --   -0.22269
 Alpha virt. eigenvalues --   -0.08236  -0.07943  -0.04028  -0.01993   0.00964
 Alpha virt. eigenvalues --    0.02541   0.02717   0.04674   0.05350   0.05935
 Alpha virt. eigenvalues --    0.06089   0.07457   0.08679   0.09136   0.09648
 Alpha virt. eigenvalues --    0.10272   0.10989   0.11619   0.11647   0.11868
 Alpha virt. eigenvalues --    0.12905   0.13869   0.14188   0.14623   0.14984
 Alpha virt. eigenvalues --    0.15306   0.16397   0.16671   0.16982   0.17732
 Alpha virt. eigenvalues --    0.17921   0.18240   0.18847   0.19172   0.19764
 Alpha virt. eigenvalues --    0.20574   0.21193   0.22060   0.22428   0.23296
 Alpha virt. eigenvalues --    0.24020   0.24857   0.25901   0.27898   0.29773
 Alpha virt. eigenvalues --    0.30389   0.30683   0.31921   0.32986   0.33515
 Alpha virt. eigenvalues --    0.35839   0.36507   0.37954   0.38408   0.39105
 Alpha virt. eigenvalues --    0.40676   0.40925   0.42693   0.43642   0.45169
 Alpha virt. eigenvalues --    0.46477   0.48207   0.50538   0.51482   0.52538
 Alpha virt. eigenvalues --    0.52897   0.53565   0.54055   0.54326   0.55596
 Alpha virt. eigenvalues --    0.55829   0.56066   0.57100   0.57469   0.58063
 Alpha virt. eigenvalues --    0.58579   0.59225   0.59421   0.60315   0.60878
 Alpha virt. eigenvalues --    0.61784   0.62243   0.63333   0.63465   0.64152
 Alpha virt. eigenvalues --    0.64917   0.65966   0.66791   0.67139   0.67786
 Alpha virt. eigenvalues --    0.68453   0.70210   0.70242   0.71898   0.72171
 Alpha virt. eigenvalues --    0.75759   0.76748   0.77469   0.78154   0.79804
 Alpha virt. eigenvalues --    0.80184   0.81062   0.81699   0.82140   0.82658
 Alpha virt. eigenvalues --    0.82823   0.84003   0.84484   0.84907   0.85632
 Alpha virt. eigenvalues --    0.85910   0.86444   0.87234   0.88102   0.89791
 Alpha virt. eigenvalues --    0.90186   0.90876   0.91098   0.91435   0.91932
 Alpha virt. eigenvalues --    0.92435   0.92715   0.93491   0.94045   0.94542
 Alpha virt. eigenvalues --    0.95320   0.96527   0.96780   0.96886   0.97390
 Alpha virt. eigenvalues --    0.98149   0.99023   0.99205   0.99330   1.00337
 Alpha virt. eigenvalues --    1.01181   1.02206   1.02817   1.03988   1.04542
 Alpha virt. eigenvalues --    1.05012   1.06304   1.07386   1.07610   1.08273
 Alpha virt. eigenvalues --    1.10080   1.10778   1.14082   1.14622   1.15422
 Alpha virt. eigenvalues --    1.17176   1.18163   1.20782   1.22577   1.22773
 Alpha virt. eigenvalues --    1.24948   1.27054   1.27932   1.29748   1.31427
 Alpha virt. eigenvalues --    1.31823   1.35200   1.36590   1.40327   1.42677
 Alpha virt. eigenvalues --    1.43179   1.46419   1.49151   1.52101   1.58277
 Alpha virt. eigenvalues --    1.59253   1.60832   1.61965   1.65991   1.76052
 Alpha virt. eigenvalues --    1.78168   1.83535   1.85501   1.87977   1.94162
 Alpha virt. eigenvalues --    2.01083   2.05545   2.11073
          Condensed to atoms (all electrons):
              1          2          3          4          5          6
     1  S   15.579660   0.000228  -0.001844   0.000058   0.000026   0.000002
     2  S    0.000228  15.400048   0.000000   0.000000   0.000000   0.000000
     3  O   -0.001844   0.000000   7.971153   0.000000  -0.000469  -0.000001
     4  O    0.000058   0.000000   0.000000   8.376246   0.000002   0.002662
     5  O    0.000026   0.000000  -0.000469   0.000002   8.297800  -0.100328
     6  O    0.000002   0.000000  -0.000001   0.002662  -0.100328   8.274228
     7  O    0.000019   0.000003  -0.000909   0.000000   0.000000   0.000000
     8  O    0.000000   0.000003   0.000000   0.000000   0.000000   0.000000
     9  N   -0.104993   0.000000  -0.054198  -0.000027   0.007122   0.002009
    10  N    0.016268   0.001008   0.001053   0.000000   0.000000   0.000000
    11  N   -0.000001  -0.000007   0.000002   0.000000   0.000000   0.000000
    12  N    0.000000  -0.082711   0.000000   0.000000   0.000000   0.000000
    13  N    0.000000  -0.066915   0.000000   0.000000   0.000000   0.000000
    14  C    0.215838  -0.000009   0.003835  -0.000005   0.000067  -0.000044
    15  C   -0.070001  -0.000021  -0.065196   0.000000   0.000004   0.000001
    16  C    0.005320  -0.000003   0.523907  -0.000001   0.001564   0.000026
    17  C   -0.005019   0.000000   0.002176  -0.000242  -0.094439  -0.111198
    18  C   -0.063791   0.000000   0.000123  -0.062459   0.001927  -0.002248
    19  C    0.172124   0.000000   0.000021   0.003596  -0.000029   0.000162
    20  C    0.005618   0.000000   0.000001   0.220335  -0.000414  -0.078204
    21  C   -0.001312   0.000000   0.001364  -0.000342   0.203464   0.435504
    22  C    0.000608   0.000409   0.004587   0.000000   0.000000   0.000000
    23  C   -0.000265  -0.003056  -0.000220   0.000000   0.000000   0.000000
    24  C    0.000263  -0.133129  -0.000012   0.000000   0.000000   0.000000
    25  C    0.000003   0.000000   0.000000   0.214504   0.000001   0.000009
    26  C   -0.002841   0.280684   0.000006   0.000000   0.000000   0.000000
    27  C   -0.000004   0.178403   0.000000   0.000000   0.000000   0.000000
    28  C    0.000000   0.000000   0.000000   0.000000   0.000000   0.000000
    29  H   -0.071603   0.000000  -0.000197  -0.000001   0.000001   0.000000
    30  H    0.005387   0.000002  -0.000246   0.000000   0.000001   0.000000
    31  H   -0.034786   0.000000  -0.000001   0.000688   0.000001   0.000002
    32  H   -0.036293   0.000000   0.000000  -0.000410   0.000000   0.000007
    33  H   -0.000925  -0.000099  -0.000057   0.000000   0.000000   0.000000
    34  H   -0.000112   0.000000   0.000000  -0.058977   0.000006   0.003444
    35  H   -0.000311   0.000000  -0.000001  -0.049589  -0.000116   0.007371
    36  H    0.000000   0.000000   0.000032   0.000000   0.233848   0.002427
    37  H    0.000000   0.000000   0.000000  -0.031389   0.000000   0.000002
    38  H    0.000000   0.000000   0.000000  -0.045904   0.000000   0.000914
    39  H   -0.000001   0.000000   0.000000  -0.049326   0.000000   0.000083
    40  H    0.010347  -0.012103  -0.000015   0.000000   0.000000   0.000000
    41  H    0.000000   0.004207   0.000000   0.000000   0.000000   0.000000
    42  H    0.000000   0.000589   0.000000   0.000000   0.000000   0.000000
    43  H    0.000000   0.000000   0.000000   0.000000   0.000000   0.000000
    44  H    0.000000   0.000000   0.000000   0.000000   0.000000   0.000000
    45  H    0.000000   0.000000   0.000000   0.000000   0.000000   0.000000
              7          8          9         10         11         12
     1  S    0.000019   0.000000  -0.104993   0.016268  -0.000001   0.000000
     2  S    0.000003   0.000003   0.000000   0.001008  -0.000007  -0.082711
     3  O   -0.000909   0.000000  -0.054198   0.001053   0.000002   0.000000
     4  O    0.000000   0.000000  -0.000027   0.000000   0.000000   0.000000
     5  O    0.000000   0.000000   0.007122   0.000000   0.000000   0.000000
     6  O    0.000000   0.000000   0.002009   0.000000   0.000000   0.000000
     7  O    8.099507  -0.016599  -0.000019  -0.138020  -0.003705  -0.000004
     8  O   -0.016599   8.348816   0.000000  -0.000123   0.035760  -0.000020
     9  N   -0.000019   0.000000   7.634038   0.009941   0.000000   0.000000
    10  N   -0.138020  -0.000123   0.009941   7.477748   0.003577   0.000045
    11  N   -0.003705   0.035760   0.000000   0.003577   6.930949   0.006528
    12  N   -0.000004  -0.000020   0.000000   0.000045   0.006528   6.944039
    13  N    0.000000   0.000000   0.000000   0.000000  -0.000005  -0.078268
    14  C    0.000538   0.000000   0.020839  -0.051988   0.000000   0.000000
    15  C    0.003389   0.000016  -0.201478   0.181983  -0.000173   0.000001
    16  C   -0.000973  -0.000001   0.090854  -0.037622  -0.000003   0.000000
    17  C    0.000000   0.000000   0.211471  -0.000301   0.000000   0.000000
    18  C    0.000000   0.000000  -0.072813   0.000012   0.000000   0.000000
    19  C    0.000000   0.000000  -0.013680   0.000105   0.000000   0.000000
    20  C    0.000000   0.000000   0.003229   0.000000   0.000000   0.000000
    21  C    0.000000   0.000000  -0.028586   0.000001   0.000000   0.000000
    22  C    0.506571  -0.013367  -0.000039   0.068005  -0.085735   0.002698
    23  C   -0.105529  -0.068688  -0.000002  -0.131164   0.389794  -0.037781
    24  C    0.003070   0.005573  -0.000001   0.011775  -0.068833   0.409051
    25  C    0.000000   0.000000   0.000001   0.000000   0.000000   0.000000
    26  C   -0.000136  -0.000021  -0.000007  -0.040281   0.007563  -0.135886
    27  C    0.000000  -0.000002   0.000000   0.000020  -0.000203   0.325383
    28  C    0.001233   0.183283   0.000000   0.000006  -0.066294   0.000013
    29  H    0.000005   0.000000  -0.041751  -0.000047   0.000000   0.000000
    30  H    0.018277   0.000007   0.006309  -0.062851   0.000003   0.000000
    31  H    0.000000   0.000000  -0.001226  -0.000005   0.000000   0.000000
    32  H    0.000000   0.000000   0.000066   0.000004   0.000000   0.000000
    33  H    0.000491   0.000017  -0.000289   0.296640  -0.000131   0.000005
    34  H    0.000000   0.000000  -0.000107   0.000000   0.000000   0.000000
    35  H    0.000000   0.000000  -0.000023   0.000000   0.000000   0.000000
    36  H    0.000000   0.000000  -0.000416   0.000000   0.000000   0.000000
    37  H    0.000000   0.000000   0.000000   0.000000   0.000000   0.000000
    38  H    0.000000   0.000000   0.000000   0.000000   0.000000   0.000000
    39  H    0.000000   0.000000   0.000000   0.000000   0.000000   0.000000
    40  H    0.000126   0.000001   0.000060   0.021361   0.000026   0.003048
    41  H    0.000000   0.000000   0.000000   0.000000   0.000003   0.001343
    42  H    0.000000   0.000000   0.000000   0.000000   0.000000   0.004205
    43  H   -0.000120  -0.041366   0.000000  -0.000001  -0.002090   0.000001
    44  H    0.000023  -0.026324   0.000000   0.000000   0.006302   0.000000
    45  H   -0.000037  -0.042140   0.000000   0.000000   0.007928   0.000004
             13         14         15         16         17         18
     1  S    0.000000   0.215838  -0.070001   0.005320  -0.005019  -0.063791
     2  S   -0.066915  -0.000009  -0.000021  -0.000003   0.000000   0.000000
     3  O    0.000000   0.003835  -0.065196   0.523907   0.002176   0.000123
     4  O    0.000000  -0.000005   0.000000  -0.000001  -0.000242  -0.062459
     5  O    0.000000   0.000067   0.000004   0.001564  -0.094439   0.001927
     6  O    0.000000  -0.000044   0.000001   0.000026  -0.111198  -0.002248
     7  O    0.000000   0.000538   0.003389  -0.000973   0.000000   0.000000
     8  O    0.000000   0.000000   0.000016  -0.000001   0.000000   0.000000
     9  N    0.000000   0.020839  -0.201478   0.090854   0.211471  -0.072813
    10  N    0.000000  -0.051988   0.181983  -0.037622  -0.000301   0.000012
    11  N   -0.000005   0.000000  -0.000173  -0.000003   0.000000   0.000000
    12  N   -0.078268   0.000000   0.000001   0.000000   0.000000   0.000000
    13  N    6.910799   0.000000   0.000000   0.000000   0.000000   0.000000
    14  C    0.000000   5.974569   0.064914  -0.129952  -0.035431  -0.019272
    15  C    0.000000   0.064914   5.665556   0.121485   0.018220  -0.000587
    16  C    0.000000  -0.129952   0.121485   4.985904  -0.032051  -0.000033
    17  C    0.000000  -0.035431   0.018220  -0.032051   5.235140   0.472699
    18  C    0.000000  -0.019272  -0.000587  -0.000033   0.472699   5.302921
    19  C    0.000000  -0.026639   0.006170  -0.001304  -0.056725   0.216066
    20  C    0.000000   0.000310  -0.000004  -0.000012  -0.002707   0.292596
    21  C    0.000000   0.004936  -0.000129  -0.002256   0.202789  -0.056662
    22  C    0.000000   0.007189  -0.039164  -0.000869   0.000006   0.000000
    23  C    0.000080   0.000037   0.005885   0.000161   0.000000   0.000000
    24  C    0.005174  -0.000003  -0.000676   0.000017   0.000000   0.000000
    25  C    0.000000   0.000000   0.000000   0.000000   0.000160   0.007902
    26  C    0.001708   0.000217   0.001710   0.000177   0.000000  -0.000001
    27  C    0.247280   0.000000   0.000000   0.000000   0.000000   0.000000
    28  C    0.000000   0.000000   0.000000   0.000000   0.000000   0.000000
    29  H    0.000000   0.353180  -0.033395   0.013506  -0.001214   0.000315
    30  H    0.000000  -0.037341   0.372271  -0.035654  -0.000087  -0.000021
    31  H    0.000000  -0.008472  -0.000161   0.000034  -0.004967  -0.041412
    32  H    0.000000   0.003713  -0.000087   0.000030   0.004120  -0.022754
    33  H    0.000000  -0.002722  -0.029172   0.004469   0.000010   0.000000
    34  H    0.000000   0.000013   0.000000   0.000001   0.005837  -0.036071
    35  H    0.000000  -0.000001  -0.000001   0.000007  -0.010766  -0.037263
    36  H    0.000000   0.000002   0.000001  -0.000008   0.008954  -0.000064
    37  H    0.000000   0.000000   0.000000   0.000000   0.000000  -0.000295
    38  H    0.000000   0.000000   0.000000   0.000000  -0.000035  -0.000328
    39  H    0.000000   0.000000   0.000000   0.000000   0.000015  -0.000104
    40  H   -0.000005  -0.000329  -0.000695  -0.000236   0.000000   0.000006
    41  H    0.314267   0.000000   0.000000   0.000000   0.000000   0.000000
    42  H    0.303784   0.000000   0.000000   0.000000   0.000000   0.000000
    43  H    0.000000   0.000000   0.000000   0.000000   0.000000   0.000000
    44  H    0.000000   0.000000   0.000000   0.000000   0.000000   0.000000
    45  H    0.000000   0.000000   0.000000   0.000000   0.000000   0.000000
             19         20         21         22         23         24
     1  S    0.172124   0.005618  -0.001312   0.000608  -0.000265   0.000263
     2  S    0.000000   0.000000   0.000000   0.000409  -0.003056  -0.133129
     3  O    0.000021   0.000001   0.001364   0.004587  -0.000220  -0.000012
     4  O    0.003596   0.220335  -0.000342   0.000000   0.000000   0.000000
     5  O   -0.000029  -0.000414   0.203464   0.000000   0.000000   0.000000
     6  O    0.000162  -0.078204   0.435504   0.000000   0.000000   0.000000
     7  O    0.000000   0.000000   0.000000   0.506571  -0.105529   0.003070
     8  O    0.000000   0.000000   0.000000  -0.013367  -0.068688   0.005573
     9  N   -0.013680   0.003229  -0.028586  -0.000039  -0.000002  -0.000001
    10  N    0.000105   0.000000   0.000001   0.068005  -0.131164   0.011775
    11  N    0.000000   0.000000   0.000000  -0.085735   0.389794  -0.068833
    12  N    0.000000   0.000000   0.000000   0.002698  -0.037781   0.409051
    13  N    0.000000   0.000000   0.000000   0.000000   0.000080   0.005174
    14  C   -0.026639   0.000310   0.004936   0.007189   0.000037  -0.000003
    15  C    0.006170  -0.000004  -0.000129  -0.039164   0.005885  -0.000676
    16  C   -0.001304  -0.000012  -0.002256  -0.000869   0.000161   0.000017
    17  C   -0.056725  -0.002707   0.202789   0.000006   0.000000   0.000000
    18  C    0.216066   0.292596  -0.056662   0.000000   0.000000   0.000000
    19  C    5.653587  -0.032657   0.005236   0.000001   0.000000   0.000000
    20  C   -0.032657   5.087904  -0.021359   0.000000   0.000000   0.000000
    21  C    0.005236  -0.021359   4.760522   0.000000   0.000000   0.000000
    22  C    0.000001   0.000000   0.000000   5.162539   0.075754  -0.070039
    23  C    0.000000   0.000000   0.000000   0.075754   5.531179   0.195745
    24  C    0.000000   0.000000   0.000000  -0.070039   0.195745   5.089133
    25  C    0.000007  -0.047956   0.000075   0.000000   0.000000   0.000000
    26  C    0.000036   0.000000   0.000000  -0.025479  -0.070149   0.325589
    27  C    0.000000   0.000000   0.000000   0.000073   0.016169  -0.026772
    28  C    0.000000   0.000000   0.000000   0.000639   0.005385  -0.000252
    29  H   -0.007465   0.000048   0.000025  -0.000105   0.000003   0.000000
    30  H   -0.000060   0.000000   0.000009   0.000628   0.000540  -0.000042
    31  H    0.342398   0.001818  -0.000149   0.000000   0.000000   0.000000
    32  H    0.369539  -0.004573  -0.000054   0.000000   0.000000   0.000000
    33  H   -0.000028   0.000000   0.000000  -0.021876   0.001510   0.000247
    34  H   -0.014357   0.306092   0.001871   0.000000   0.000000   0.000000
    35  H    0.004831   0.361787  -0.012594   0.000000   0.000000   0.000000
    36  H    0.000001   0.000025  -0.014768   0.000000   0.000000   0.000000
    37  H    0.000008   0.006317  -0.000007   0.000000   0.000000   0.000000
    38  H    0.000018  -0.008505  -0.000064   0.000000   0.000000   0.000000
    39  H   -0.000096  -0.011726   0.000021   0.000000   0.000000   0.000000
    40  H   -0.000184   0.000000   0.000000  -0.000760  -0.003591  -0.004628
    41  H    0.000000   0.000000   0.000000   0.000000  -0.000030   0.000176
    42  H    0.000000   0.000000   0.000000   0.000000  -0.000001  -0.000317
    43  H    0.000000   0.000000   0.000000   0.000155   0.002696  -0.000105
    44  H    0.000000   0.000000   0.000000   0.000077  -0.000472  -0.000005
    45  H    0.000000   0.000000   0.000000   0.000036  -0.000796   0.000003
             25         26         27         28         29         30
     1  S    0.000003  -0.002841  -0.000004   0.000000  -0.071603   0.005387
     2  S    0.000000   0.280684   0.178403   0.000000   0.000000   0.000002
     3  O    0.000000   0.000006   0.000000   0.000000  -0.000197  -0.000246
     4  O    0.214504   0.000000   0.000000   0.000000  -0.000001   0.000000
     5  O    0.000001   0.000000   0.000000   0.000000   0.000001   0.000001
     6  O    0.000009   0.000000   0.000000   0.000000   0.000000   0.000000
     7  O    0.000000  -0.000136   0.000000   0.001233   0.000005   0.018277
     8  O    0.000000  -0.000021  -0.000002   0.183283   0.000000   0.000007
     9  N    0.000001  -0.000007   0.000000   0.000000  -0.041751   0.006309
    10  N    0.000000  -0.040281   0.000020   0.000006  -0.000047  -0.062851
    11  N    0.000000   0.007563  -0.000203  -0.066294   0.000000   0.000003
    12  N    0.000000  -0.135886   0.325383   0.000013   0.000000   0.000000
    13  N    0.000000   0.001708   0.247280   0.000000   0.000000   0.000000
    14  C    0.000000   0.000217   0.000000   0.000000   0.353180  -0.037341
    15  C    0.000000   0.001710   0.000000   0.000000  -0.033395   0.372271
    16  C    0.000000   0.000177   0.000000   0.000000   0.013506  -0.035654
    17  C    0.000160   0.000000   0.000000   0.000000  -0.001214  -0.000087
    18  C    0.007902  -0.000001   0.000000   0.000000   0.000315  -0.000021
    19  C    0.000007   0.000036   0.000000   0.000000  -0.007465  -0.000060
    20  C   -0.047956   0.000000   0.000000   0.000000   0.000048   0.000000
    21  C    0.000075   0.000000   0.000000   0.000000   0.000025   0.000009
    22  C    0.000000  -0.025479   0.000073   0.000639  -0.000105   0.000628
    23  C    0.000000  -0.070149   0.016169   0.005385   0.000003   0.000540
    24  C    0.000000   0.325589  -0.026772  -0.000252   0.000000  -0.000042
    25  C    4.885236   0.000000   0.000000   0.000000   0.000000   0.000000
    26  C    0.000000   5.923850  -0.069270   0.000002   0.000001  -0.000071
    27  C    0.000000  -0.069270   5.351728   0.000000   0.000000   0.000000
    28  C    0.000000   0.000002   0.000000   4.919680   0.000000   0.000000
    29  H    0.000000   0.000001   0.000000   0.000000   0.582312  -0.004133
    30  H    0.000000  -0.000071   0.000000   0.000000  -0.004133   0.511368
    31  H   -0.000017   0.000000   0.000000   0.000000   0.006718   0.000002
    32  H   -0.000006   0.000000   0.000000   0.000000  -0.000061   0.000001
    33  H    0.000000   0.001011   0.000002   0.000000   0.000909  -0.002038
    34  H   -0.007098   0.000000   0.000000   0.000000   0.000000   0.000000
    35  H   -0.004499   0.000000   0.000000   0.000000   0.000000   0.000000
    36  H   -0.000001   0.000000   0.000000   0.000000   0.000000   0.000000
    37  H    0.380764   0.000000   0.000000   0.000000   0.000000   0.000000
    38  H    0.369109   0.000000   0.000000   0.000000   0.000000   0.000000
    39  H    0.358597   0.000000   0.000000   0.000000   0.000000   0.000000
    40  H    0.000000   0.331568   0.001886   0.000000   0.000025   0.000152
    41  H    0.000000  -0.000028  -0.029789   0.000000   0.000000   0.000000
    42  H    0.000000   0.000102  -0.027144   0.000000   0.000000   0.000000
    43  H    0.000000  -0.000001   0.000000   0.369785   0.000000   0.000000
    44  H    0.000000   0.000000   0.000000   0.372939   0.000000   0.000000
    45  H    0.000000   0.000000   0.000000   0.361047   0.000000   0.000000
             31         32         33         34         35         36
     1  S   -0.034786  -0.036293  -0.000925  -0.000112  -0.000311   0.000000
     2  S    0.000000   0.000000  -0.000099   0.000000   0.000000   0.000000
     3  O   -0.000001   0.000000  -0.000057   0.000000  -0.000001   0.000032
     4  O    0.000688  -0.000410   0.000000  -0.058977  -0.049589   0.000000
     5  O    0.000001   0.000000   0.000000   0.000006  -0.000116   0.233848
     6  O    0.000002   0.000007   0.000000   0.003444   0.007371   0.002427
     7  O    0.000000   0.000000   0.000491   0.000000   0.000000   0.000000
     8  O    0.000000   0.000000   0.000017   0.000000   0.000000   0.000000
     9  N   -0.001226   0.000066  -0.000289  -0.000107  -0.000023  -0.000416
    10  N   -0.000005   0.000004   0.296640   0.000000   0.000000   0.000000
    11  N    0.000000   0.000000  -0.000131   0.000000   0.000000   0.000000
    12  N    0.000000   0.000000   0.000005   0.000000   0.000000   0.000000
    13  N    0.000000   0.000000   0.000000   0.000000   0.000000   0.000000
    14  C   -0.008472   0.003713  -0.002722   0.000013  -0.000001   0.000002
    15  C   -0.000161  -0.000087  -0.029172   0.000000  -0.000001   0.000001
    16  C    0.000034   0.000030   0.004469   0.000001   0.000007  -0.000008
    17  C   -0.004967   0.004120   0.000010   0.005837  -0.010766   0.008954
    18  C   -0.041412  -0.022754   0.000000  -0.036071  -0.037263  -0.000064
    19  C    0.342398   0.369539  -0.000028  -0.014357   0.004831   0.000001
    20  C    0.001818  -0.004573   0.000000   0.306092   0.361787   0.000025
    21  C   -0.000149  -0.000054   0.000000   0.001871  -0.012594  -0.014768
    22  C    0.000000   0.000000  -0.021876   0.000000   0.000000   0.000000
    23  C    0.000000   0.000000   0.001510   0.000000   0.000000   0.000000
    24  C    0.000000   0.000000   0.000247   0.000000   0.000000   0.000000
    25  C   -0.000017  -0.000006   0.000000  -0.007098  -0.004499  -0.000001
    26  C    0.000000   0.000000   0.001011   0.000000   0.000000   0.000000
    27  C    0.000000   0.000000   0.000002   0.000000   0.000000   0.000000
    28  C    0.000000   0.000000   0.000000   0.000000   0.000000   0.000000
    29  H    0.006718  -0.000061   0.000909   0.000000   0.000000   0.000000
    30  H    0.000002   0.000001  -0.002038   0.000000   0.000000   0.000000
    31  H    0.549097  -0.023553   0.000002   0.000308  -0.000056   0.000000
    32  H   -0.023553   0.496086   0.000000   0.006994  -0.000110   0.000000
    33  H    0.000002   0.000000   0.428244   0.000000   0.000000   0.000000
    34  H    0.000308   0.006994   0.000000   0.731561  -0.054434  -0.000001
    35  H   -0.000056  -0.000110   0.000000  -0.054434   0.560649   0.000079
    36  H    0.000000   0.000000   0.000000  -0.000001   0.000079   0.377968
    37  H   -0.000002   0.000001   0.000000  -0.000277  -0.000194   0.000000
    38  H    0.000001  -0.000003   0.000000  -0.003656   0.015044   0.000001
    39  H    0.000009   0.000017   0.000000   0.018987  -0.003679   0.000000
    40  H    0.000002   0.000002  -0.001523   0.000000   0.000000   0.000000
    41  H    0.000000   0.000000   0.000000   0.000000   0.000000   0.000000
    42  H    0.000000   0.000000   0.000000   0.000000   0.000000   0.000000
    43  H    0.000000   0.000000  -0.000001   0.000000   0.000000   0.000000
    44  H    0.000000   0.000000   0.000000   0.000000   0.000000   0.000000
    45  H    0.000000   0.000000   0.000000   0.000000   0.000000   0.000000
             37         38         39         40         41         42
     1  S    0.000000   0.000000  -0.000001   0.010347   0.000000   0.000000
     2  S    0.000000   0.000000   0.000000  -0.012103   0.004207   0.000589
     3  O    0.000000   0.000000   0.000000  -0.000015   0.000000   0.000000
     4  O   -0.031389  -0.045904  -0.049326   0.000000   0.000000   0.000000
     5  O    0.000000   0.000000   0.000000   0.000000   0.000000   0.000000
     6  O    0.000002   0.000914   0.000083   0.000000   0.000000   0.000000
     7  O    0.000000   0.000000   0.000000   0.000126   0.000000   0.000000
     8  O    0.000000   0.000000   0.000000   0.000001   0.000000   0.000000
     9  N    0.000000   0.000000   0.000000   0.000060   0.000000   0.000000
    10  N    0.000000   0.000000   0.000000   0.021361   0.000000   0.000000
    11  N    0.000000   0.000000   0.000000   0.000026   0.000003   0.000000
    12  N    0.000000   0.000000   0.000000   0.003048   0.001343   0.004205
    13  N    0.000000   0.000000   0.000000  -0.000005   0.314267   0.303784
    14  C    0.000000   0.000000   0.000000  -0.000329   0.000000   0.000000
    15  C    0.000000   0.000000   0.000000  -0.000695   0.000000   0.000000
    16  C    0.000000   0.000000   0.000000  -0.000236   0.000000   0.000000
    17  C    0.000000  -0.000035   0.000015   0.000000   0.000000   0.000000
    18  C   -0.000295  -0.000328  -0.000104   0.000006   0.000000   0.000000
    19  C    0.000008   0.000018  -0.000096  -0.000184   0.000000   0.000000
    20  C    0.006317  -0.008505  -0.011726   0.000000   0.000000   0.000000
    21  C   -0.000007  -0.000064   0.000021   0.000000   0.000000   0.000000
    22  C    0.000000   0.000000   0.000000  -0.000760   0.000000   0.000000
    23  C    0.000000   0.000000   0.000000  -0.003591  -0.000030  -0.000001
    24  C    0.000000   0.000000   0.000000  -0.004628   0.000176  -0.000317
    25  C    0.380764   0.369109   0.358597   0.000000   0.000000   0.000000
    26  C    0.000000   0.000000   0.000000   0.331568  -0.000028   0.000102
    27  C    0.000000   0.000000   0.000000   0.001886  -0.029789  -0.027144
    28  C    0.000000   0.000000   0.000000   0.000000   0.000000   0.000000
    29  H    0.000000   0.000000   0.000000   0.000025   0.000000   0.000000
    30  H    0.000000   0.000000   0.000000   0.000152   0.000000   0.000000
    31  H   -0.000002   0.000001   0.000009   0.000002   0.000000   0.000000
    32  H    0.000001  -0.000003   0.000017   0.000002   0.000000   0.000000
    33  H    0.000000   0.000000   0.000000  -0.001523   0.000000   0.000000
    34  H   -0.000277  -0.003656   0.018987   0.000000   0.000000   0.000000
    35  H   -0.000194   0.015044  -0.003679   0.000000   0.000000   0.000000
    36  H    0.000000   0.000001   0.000000   0.000000   0.000000   0.000000
    37  H    0.561798  -0.034337  -0.037094   0.000000   0.000000   0.000000
    38  H   -0.034337   0.611343  -0.053140   0.000000   0.000000   0.000000
    39  H   -0.037094  -0.053140   0.651979   0.000000   0.000000   0.000000
    40  H    0.000000   0.000000   0.000000   0.395214   0.000000   0.000000
    41  H    0.000000   0.000000   0.000000   0.000000   0.425569  -0.032516
    42  H    0.000000   0.000000   0.000000   0.000000  -0.032516   0.453149
    43  H    0.000000   0.000000   0.000000   0.000000   0.000000   0.000000
    44  H    0.000000   0.000000   0.000000   0.000000   0.000000   0.000000
    45  H    0.000000   0.000000   0.000000   0.000000   0.000000   0.000000
             43         44         45
     1  S    0.000000   0.000000   0.000000
     2  S    0.000000   0.000000   0.000000
     3  O    0.000000   0.000000   0.000000
     4  O    0.000000   0.000000   0.000000
     5  O    0.000000   0.000000   0.000000
     6  O    0.000000   0.000000   0.000000
     7  O   -0.000120   0.000023  -0.000037
     8  O   -0.041366  -0.026324  -0.042140
     9  N    0.000000   0.000000   0.000000
    10  N   -0.000001   0.000000   0.000000
    11  N   -0.002090   0.006302   0.007928
    12  N    0.000001   0.000000   0.000004
    13  N    0.000000   0.000000   0.000000
    14  C    0.000000   0.000000   0.000000
    15  C    0.000000   0.000000   0.000000
    16  C    0.000000   0.000000   0.000000
    17  C    0.000000   0.000000   0.000000
    18  C    0.000000   0.000000   0.000000
    19  C    0.000000   0.000000   0.000000
    20  C    0.000000   0.000000   0.000000
    21  C    0.000000   0.000000   0.000000
    22  C    0.000155   0.000077   0.000036
    23  C    0.002696  -0.000472  -0.000796
    24  C   -0.000105  -0.000005   0.000003
    25  C    0.000000   0.000000   0.000000
    26  C   -0.000001   0.000000   0.000000
    27  C    0.000000   0.000000   0.000000
    28  C    0.369785   0.372939   0.361047
    29  H    0.000000   0.000000   0.000000
    30  H    0.000000   0.000000   0.000000
    31  H    0.000000   0.000000   0.000000
    32  H    0.000000   0.000000   0.000000
    33  H   -0.000001   0.000000   0.000000
    34  H    0.000000   0.000000   0.000000
    35  H    0.000000   0.000000   0.000000
    36  H    0.000000   0.000000   0.000000
    37  H    0.000000   0.000000   0.000000
    38  H    0.000000   0.000000   0.000000
    39  H    0.000000   0.000000   0.000000
    40  H    0.000000   0.000000   0.000000
    41  H    0.000000   0.000000   0.000000
    42  H    0.000000   0.000000   0.000000
    43  H    0.592713  -0.035423  -0.041013
    44  H   -0.035423   0.544322  -0.030566
    45  H   -0.041013  -0.030566   0.579350
 Mulliken atomic charges:
              1
     1  S    0.382332
     2  S    0.432470
     3  O   -0.384895
     4  O   -0.519418
     5  O   -0.550039
     6  O   -0.436830
     7  O   -0.367204
     8  O   -0.364824
     9  N   -0.466285
    10  N   -0.627146
    11  N   -0.161254
    12  N   -0.361694
    13  N   -0.637898
    14  C   -0.337987
    15  C   -0.000667
    16  C    0.493516
    17  C    0.193584
    18  C    0.121609
    19  C   -0.620682
    20  C   -0.077963
    21  C    0.522464
    22  C    0.427458
    23  C    0.196806
    24  C    0.259001
    25  C   -0.156790
    26  C   -0.530052
    27  C    0.032242
    28  C   -0.147465
    29  H    0.202925
    30  H    0.227588
    31  H    0.213730
    32  H    0.207324
    33  H    0.325303
    34  H    0.099976
    35  H    0.223867
    36  H    0.391920
    37  H    0.154707
    38  H    0.149543
    39  H    0.125456
    40  H    0.260244
    41  H    0.316799
    42  H    0.298149
    43  H    0.154770
    44  H    0.169127
    45  H    0.166183
 Sum of Mulliken charges=   0.00000
 Atomic charges with hydrogens summed into heavy atoms:
              1
     1  S    0.382332
     2  S    0.432470
     3  O   -0.384895
     4  O   -0.519418
     5  O   -0.158119
     6  O   -0.436830
     7  O   -0.367204
     8  O   -0.364824
     9  N   -0.466285
    10  N   -0.301844
    11  N   -0.161254
    12  N   -0.361694
    13  N   -0.022950
    14  C   -0.135062
    15  C    0.226921
    16  C    0.493516
    17  C    0.193584
    18  C    0.121609
    19  C   -0.199628
    20  C    0.245881
    21  C    0.522464
    22  C    0.427458
    23  C    0.196806
    24  C    0.259001
    25  C    0.272915
    26  C   -0.269808
    27  C    0.032242
    28  C    0.342615
    29  H    0.000000
    30  H    0.000000
    31  H    0.000000
    32  H    0.000000
    33  H    0.000000
    34  H    0.000000
    35  H    0.000000
    36  H    0.000000
    37  H    0.000000
    38  H    0.000000
    39  H    0.000000
    40  H    0.000000
    41  H    0.000000
    42  H    0.000000
    43  H    0.000000
    44  H    0.000000
    45  H    0.000000
 Sum of Mulliken charges=   0.00000
 Electronic spatial extent (au):  <R**2>= 16030.2527
 Charge=     0.0000 electrons
 Dipole moment (field-independent basis, Debye):
    X=     0.0127    Y=    -3.0442    Z=     5.1935  Tot=     6.0199
 Quadrupole moment (field-independent basis, Debye-Ang):
   XX=  -140.6382   YY=  -162.0863   ZZ=  -175.7964
   XY=     1.2423   XZ=    -9.1963   YZ=     1.9251
 Traceless Quadrupole moment (field-independent basis, Debye-Ang):
   XX=    18.8688   YY=    -2.5793   ZZ=   -16.2894
   XY=     1.2423   XZ=    -9.1963   YZ=     1.9251
 Octapole moment (field-independent basis, Debye-Ang**2):
  XXX=   -98.6316  YYY=    14.8748  ZZZ=    32.2452  XYY=   -43.2766
  XXY=   -30.3636  XXZ=   -25.9719  XZZ=    16.3173  YZZ=    23.2683
  YYZ=   -18.3610  XYZ=    -3.0235
 Hexadecapole moment (field-independent basis, Debye-Ang**3):
 XXXX=-13086.0569 YYYY= -3880.4043 ZZZZ= -1002.9863 XXXY=   157.7570
 XXXZ=  -183.3658 YYYX=   154.6513 YYYZ=   -66.6476 ZZZX=   -60.7235
 ZZZY=   -41.4953 XXYY= -2146.9736 XXZZ= -2860.5449 YYZZ=  -934.3125
 XXYZ=    50.9290 YYXZ=   -25.7358 ZZXY=   -74.8056
 N-N= 2.970366488942D+03 E-N=-1.088700291335D+04  KE= 2.094420758792D+03
 1|1|UNPC-UNK|SP|RTD-B3LYP-FC|6-31G|C15H17N5O6S2|PCUSER|11-Dec-2021|0||
 # TD B3LYP/6-31G GEOM=CONNECTIVITY||uv vis of cefpodoxime||0,1|S,0,-1.
 38407618,-0.63747077,-1.76745776|S,0,3.20022686,-2.55229757,-2.4331240
 1|O,0,-0.49837005,0.9601684,1.55250971|O,0,-6.19735978,-0.97589396,-0.
 69435001|O,0,-3.71496553,1.75536537,2.29089071|O,0,-5.0255906,-0.11916
 566,1.84774555|O,0,1.92598922,2.81033622,0.05300034|O,0,4.12734306,2.5
 4444794,1.10456569|N,0,-2.28854085,1.33031952,-0.25817956|N,0,1.000841
 61,1.1536924,-1.35907384|N,0,4.27446308,1.32693657,0.51666958|N,0,4.71
 131883,-1.38078284,-0.72255097|N,0,5.52376666,-3.65304201,-1.1742651|C
 ,0,-1.54237383,1.09602152,-1.52636012|C,0,-0.30143323,1.66698808,-0.91
 017782|C,0,-0.9259697,1.25450748,0.40617043|C,0,-3.38183056,0.39059024
 ,0.13563922|C,0,-3.78938015,-0.69324614,-0.6144974|C,0,-3.07090209,-1.
 1178559,-1.91173502|C,0,-4.99847521,-1.51639512,-0.13271494|C,0,-4.099
 96784,0.64687852,1.4736209|C,0,2.06212199,1.68378172,-0.49097889|C,0,3
 .34053479,0.86046014,-0.24725373|C,0,3.50712594,-0.5181928,-0.91295899
 |C,0,-7.3200905,-1.74024685,-0.24697989|C,0,2.56874804,-1.07444397,-1.
 72074527|C,0,4.5996602,-2.52373738,-1.35202387|C,0,5.41223755,3.146515
 36,1.28193877|H,0,-1.90283419,1.49457228,-2.45163061|H,0,-0.22360403,2
 .73219123,-0.97486776|H,0,-3.51812712,-0.62966246,-2.75230436|H,0,-3.1
 4167016,-2.1776272,-2.04126038|H,0,1.16602646,1.44279892,-2.30201144|H
 ,0,-4.88502603,-2.53336031,-0.44546262|H,0,-5.05494251,-1.47578913,0.9
 3502219|H,0,-4.474949,2.06474736,2.78919563|H,0,-8.21715836,-1.3358162
 4,-0.66722399|H,0,-7.37655728,-1.69964067,0.82075726|H,0,-7.20664108,-
 2.75721202,-0.55972744|H,0,1.59100571,-0.67590138,-1.89419206|H,0,6.43
 375034,-3.30646965,-0.94663104|H,0,5.57083836,-4.18181324,-2.0217232|H
 ,0,5.88507097,3.26517253,0.32944256|H,0,5.29648846,4.10440995,1.744475
 36|H,0,6.01657773,2.52046159,1.90461818||Version=IA32W-G03RevC.01|Stat
 e=1-A|HF=-2102.5320203|RMSD=6.304e-009|PG=C01 [X(C15H17N5O6S2)]||@


 A ROPE OVER THE TOP OF A FENCE HAS THE SAME LENGTH ON EACH SIDE.
 WEIGHS 1/3 POUND PER FOOT.  ON ONE END HANGS A MONKEY HOLDING A
 BANANA, AND ON THE OTHER END A WEIGHT EQUAL TO THE WEIGHT
 OF THE MONKEY.  THE BANANA WEIGHS TWO OUNCES PER INCH.
 THE ROPE IS AS LONG AS THE AGE OF THE MONKEY, 
 AND THE WEIGHT OF THE MONKEY (IN OUNCES) IS AS MUCH
 AS THE AGE OF THE MONKEY'S MOTHER.  THE COMBINED AGES OF MONKEY
 AND MOTHER ARE THIRTY YEARS.  HALF THE WEIGHT OF THE MONKEY,
  PLUS THE WEIGHT OF THE BANANA, IS ONE FOURTH AS MUCH AS THE WEIGHT
 OF THE WEIGHT AND THE ROPE.
 THE MONKEY'S MOTHER IS HALF AS OLD AS THE MONKEY WILL BE
 WHEN IT IS 3 TIMES AS OLD AS ITS MOTHER WAS WHEN
 SHE WAS HALF AS OLD AS THE MONKEY WILL BE WHEN IT IS
 AS OLD AS ITS MOTHER WILL BE WHEN SHE IS 4 TIMES AS
 OLD AS THE MONKEY WAS WHEN IT WAS TWICE AS OLD AS 
 ITS MOTHER WAS WHEN SHE WAS ONE THIRD AS OLD AS THE
 MONKEY WAS WHEN IT WAS AS OLD AS ITS MOTHER WAS WHEN 
 SHE WAS 3 TIMES AS OLD AS THE MONKEY WAS WHEN IT WAS AS OLD AS ITS
 MOTHER WAS WHEN SHE WAS 3 TIMES AS OLD AS THE MONKEY 
 WAS WHEN IT WAS ONE FOURTH WAS OLD AS IT IS NOW.

 HOW LONG IS THE BANANA?
 Job cpu time:  0 days  0 hours 25 minutes 34.0 seconds.
 File lengths (MBytes):  RWF=    192 Int=      0 D2E=      0 Chk=     19 Scr=      1
 Normal termination of Gaussian 03 at Sat Dec 11 21:20:40 2021.
